 Entering Gaussian System, Link 0=/opt/gaussian/g09/g09
 Initial command:
 /opt/gaussian/g09/l1.exe /scratch/atomlins/106803.gordon-fe2.local/Gau-23364.inp -scrdir=/scratch/atomlins/106803.gordon-fe2.local/
 Entering Link 1 = /opt/gaussian/g09/l1.exe PID=     23365.
  
 Copyright (c) 1988,1990,1992,1993,1995,1998,2003,2009,2011,
            Gaussian, Inc.  All Rights Reserved.
  
 This is part of the Gaussian(R) 09 program.  It is based on
 the Gaussian(R) 03 system (copyright 2003, Gaussian, Inc.),
 the Gaussian(R) 98 system (copyright 1998, Gaussian, Inc.),
 the Gaussian(R) 94 system (copyright 1995, Gaussian, Inc.),
 the Gaussian 92(TM) system (copyright 1992, Gaussian, Inc.),
 the Gaussian 90(TM) system (copyright 1990, Gaussian, Inc.),
 the Gaussian 88(TM) system (copyright 1988, Gaussian, Inc.),
 the Gaussian 86(TM) system (copyright 1986, Carnegie Mellon
 University), and the Gaussian 82(TM) system (copyright 1983,
 Carnegie Mellon University). Gaussian is a federally registered
 trademark of Gaussian, Inc.
  
 This software contains proprietary and confidential information,
 including trade secrets, belonging to Gaussian, Inc.
  
 This software is provided under written license and may be
 used, copied, transmitted, or stored only in accord with that
 written license.
  
 The following legend is applicable only to US Government
 contracts under FAR:
  
                    RESTRICTED RIGHTS LEGEND
  
 Use, reproduction and disclosure by the US Government is
 subject to restrictions as set forth in subparagraphs (a)
 and (c) of the Commercial Computer Software - Restricted
 Rights clause in FAR 52.227-19.
  
 Gaussian, Inc.
 340 Quinnipiac St., Bldg. 40, Wallingford CT 06492
  
  
 ---------------------------------------------------------------
 Warning -- This program may not be used in any manner that
 competes with the business of Gaussian, Inc. or will provide
 assistance to any competitor of Gaussian, Inc.  The licensee
 of this program is prohibited from giving any competitor of
 Gaussian, Inc. access to this program.  By using this program,
 the user acknowledges that Gaussian, Inc. is engaged in the
 business of creating and licensing software in the field of
 computational chemistry and represents and warrants to the
 licensee that it is not a competitor of Gaussian, Inc. and that
 it will not use this program in any manner prohibited above.
 ---------------------------------------------------------------
  

 Cite this work as:
 Gaussian 09, Revision C.01,
 M. J. Frisch, G. W. Trucks, H. B. Schlegel, G. E. Scuseria, 
 M. A. Robb, J. R. Cheeseman, G. Scalmani, V. Barone, B. Mennucci, 
 G. A. Petersson, H. Nakatsuji, M. Caricato, X. Li, H. P. Hratchian, 
 A. F. Izmaylov, J. Bloino, G. Zheng, J. L. Sonnenberg, M. Hada, 
 M. Ehara, K. Toyota, R. Fukuda, J. Hasegawa, M. Ishida, T. Nakajima, 
 Y. Honda, O. Kitao, H. Nakai, T. Vreven, J. A. Montgomery, Jr., 
 J. E. Peralta, F. Ogliaro, M. Bearpark, J. J. Heyd, E. Brothers, 
 K. N. Kudin, V. N. Staroverov, T. Keith, R. Kobayashi, J. Normand, 
 K. Raghavachari, A. Rendell, J. C. Burant, S. S. Iyengar, J. Tomasi, 
 M. Cossi, N. Rega, J. M. Millam, M. Klene, J. E. Knox, J. B. Cross, 
 V. Bakken, C. Adamo, J. Jaramillo, R. Gomperts, R. E. Stratmann, 
 O. Yazyev, A. J. Austin, R. Cammi, C. Pomelli, J. W. Ochterski, 
 R. L. Martin, K. Morokuma, V. G. Zakrzewski, G. A. Voth, 
 P. Salvador, J. J. Dannenberg, S. Dapprich, A. D. Daniels, 
 O. Farkas, J. B. Foresman, J. V. Ortiz, J. Cioslowski, 
 and D. J. Fox, Gaussian, Inc., Wallingford CT, 2010.
 
 ******************************************
 Gaussian 09:  EM64L-G09RevC.01 23-Sep-2011
                12-Jun-2012 
 ******************************************
 %nprocshared=16
 Will use up to   16 processors via shared memory.
 %nprocs=8
 Will use up to    8 processors via shared memory.
 %mem=20GB
 %chk=4a_TON_3J_4a_3_21G_pop_DFT.chk
 -------------------------------------------
 # b3lyp/3-21g geom=connectivity pop=regular
 -------------------------------------------
 1/38=1,57=2/1;
 2/12=2,17=6,18=5,40=1/2;
 3/5=5,11=2,16=1,25=1,30=1,74=-5/1,2,3;
 4//1;
 5/5=2,38=5/2;
 6/28=1/1;
 99/5=1,9=1/99;
 --------------------------
 4a_TON_3J_4a_3_21G_pop_DFT
 --------------------------
 Charge =  0 Multiplicity = 1
 Symbolic Z-Matrix:
 C                     0.8469    1.04114  -0.00005 
 C                    -0.54224   1.27419  -0.00006 
 C                     1.47765  -0.20954  -0.00005 
 C                    -1.47764   0.20955  -0.00006 
 C                     0.54224  -1.27419  -0.00005 
 C                    -0.84689  -1.04113  -0.00005 
 O                     1.46061   2.26413  -0.00006 
 N                    -0.76445   2.6402   -0.00005 
 C                     0.42345   3.17295  -0.00008 
 O                    -1.4606   -2.26412  -0.00005 
 N                     0.76446  -2.64019  -0.00006 
 C                    -0.42344  -3.17294  -0.00003 
 C                     2.8777   -0.38881  -0.00005 
 C                     4.08498  -0.53951  -0.00009 
 C                    -2.87769   0.38882  -0.00006 
 C                    -4.08499   0.53948  -0.00003 
 C                     0.76817   4.58894  -0.00007 
 C                     2.10757   5.01042  -0.00012 
 C                    -0.26233   5.54443  -0.00001 
 C                     2.40804   6.37058  -0.00011 
 H                     2.90208   4.27184  -0.00017 
 C                     0.04739   6.90055   0.00001 
 H                    -1.29257   5.20427   0.00003 
 C                     1.38186   7.31792  -0.00005 
 H                     3.44597   6.69159  -0.00015 
 H                    -0.75295   7.63527   0.00005 
 H                     1.62033   8.37803  -0.00004 
 C                    -0.76816  -4.58893  -0.00004 
 C                     0.26234  -5.54442  -0.00011 
 C                    -2.10756  -5.01041   0.00001 
 C                    -0.04739  -6.90054  -0.00012 
 H                     1.29258  -5.20426  -0.00015 
 C                    -2.40803  -6.37057  -0.00001 
 H                    -2.90207  -4.27183   0.00006 
 C                    -1.38186  -7.31791  -0.00007 
 H                     0.75296  -7.63526  -0.00017 
 H                    -3.44597  -6.69158   0.00003 
 H                    -1.62032  -8.37802  -0.00008 
 C                     5.49429  -0.73398   0.00002 
 C                     6.03363  -2.03686   0.00008 
 C                     6.37282   0.36858   0.00008 
 C                     7.41245  -2.22565   0.00018 
 H                     5.35808  -2.88653   0.00004 
 C                     7.75021   0.16889   0.00018 
 H                     5.96045   1.37282   0.00004 
 C                     8.27505  -1.12617   0.00024 
 H                     7.81641  -3.23442   0.00023 
 H                     8.41753   1.02654   0.00022 
 H                     9.35098  -1.27773   0.00032 
 C                    -5.49431   0.73396   0.00004 
 C                    -6.37284  -0.3686    0.00008 
 C                    -6.03364   2.03683   0.00008 
 C                    -7.75023  -0.1689    0.00015 
 H                    -5.96048  -1.37285   0.00006 
 C                    -7.41246   2.22563   0.00015 
 H                    -5.35808   2.88651   0.00005 
 C                    -8.27507   1.12617   0.00019 
 H                    -8.41757  -1.02655   0.00018 
 H                    -7.81641   3.23441   0.00017 
 H                    -9.351     1.27773   0.00024 
 
 Stoichiometry    C36H20N2O2
 Framework group  C1[X(C36H20N2O2)]
 Deg. of freedom   174
 Full point group                 C1      NOp   1
 Largest Abelian subgroup         C1      NOp   1
 Largest concise Abelian subgroup C1      NOp   1
                         Standard orientation:                         
 ---------------------------------------------------------------------
 Center     Atomic      Atomic             Coordinates (Angstroms)
 Number     Number       Type             X           Y           Z
 ---------------------------------------------------------------------
      1          6           0        0.846900    1.041140   -0.000054
      2          6           0       -0.542235    1.274194   -0.000057
      3          6           0        1.477653   -0.209540   -0.000048
      4          6           0       -1.477643    0.209551   -0.000058
      5          6           0        0.542244   -1.274185   -0.000050
      6          6           0       -0.846891   -1.041130   -0.000054
      7          8           0        1.460605    2.264131   -0.000057
      8          7           0       -0.764450    2.640199   -0.000051
      9          6           0        0.423445    3.172950   -0.000083
     10          8           0       -1.460596   -2.264122   -0.000052
     11          7           0        0.764459   -2.640190   -0.000059
     12          6           0       -0.423435   -3.172941   -0.000028
     13          6           0        2.877703   -0.388808   -0.000050
     14          6           0        4.084976   -0.539506   -0.000089
     15          6           0       -2.877694    0.388820   -0.000060
     16          6           0       -4.084992    0.539476   -0.000031
     17          6           0        0.768168    4.588939   -0.000073
     18          6           0        2.107567    5.010422   -0.000121
     19          6           0       -0.262329    5.544425   -0.000007
     20          6           0        2.408041    6.370582   -0.000109
     21          1           0        2.902076    4.271839   -0.000169
     22          6           0        0.047394    6.900551    0.000005
     23          1           0       -1.292566    5.204265    0.000032
     24          6           0        1.381864    7.317922   -0.000046
     25          1           0        3.445973    6.691589   -0.000148
     26          1           0       -0.752950    7.635272    0.000053
     27          1           0        1.620332    8.378032   -0.000037
     28          6           0       -0.768159   -4.588930   -0.000040
     29          6           0        0.262338   -5.544417   -0.000109
     30          6           0       -2.107558   -5.010413    0.000009
     31          6           0       -0.047385   -6.900543   -0.000123
     32          1           0        1.292575   -5.204257   -0.000148
     33          6           0       -2.408032   -6.370573   -0.000006
     34          1           0       -2.902068   -4.271830    0.000060
     35          6           0       -1.381856   -7.317913   -0.000071
     36          1           0        0.752958   -7.635264   -0.000174
     37          1           0       -3.445965   -6.691579    0.000034
     38          1           0       -1.620324   -8.378024   -0.000082
     39          6           0        5.494290   -0.733984    0.000023
     40          6           0        6.033633   -2.036857    0.000078
     41          6           0        6.372817    0.368584    0.000077
     42          6           0        7.412447   -2.225647    0.000184
     43          1           0        5.358080   -2.886534    0.000035
     44          6           0        7.750210    0.168894    0.000183
     45          1           0        5.960452    1.372824    0.000035
     46          6           0        8.275053   -1.126170    0.000237
     47          1           0        7.816405   -3.234419    0.000225
     48          1           0        8.417534    1.026543    0.000224
     49          1           0        9.350984   -1.277725    0.000320
     50          6           0       -5.494306    0.733960    0.000043
     51          6           0       -6.372841   -0.368604    0.000082
     52          6           0       -6.033642    2.036834    0.000077
     53          6           0       -7.750234   -0.168902    0.000152
     54          1           0       -5.960483   -1.372846    0.000056
     55          6           0       -7.412455    2.225634    0.000147
     56          1           0       -5.358085    2.886507    0.000046
     57          6           0       -8.275069    1.126165    0.000185
     58          1           0       -8.417566   -1.026545    0.000182
     59          1           0       -7.816405    3.234409    0.000172
     60          1           0       -9.350998    1.277730    0.000240
 ---------------------------------------------------------------------
 Rotational constants (GHZ):      0.0756700      0.0582817      0.0329236
 Standard basis: 3-21G (6D, 7F)
 There are   400 symmetry adapted basis functions of A   symmetry.
 Integral buffers will be    131072 words long.
 Raffenetti 2 integral format.
 Two-electron integral symmetry is turned on.
   400 basis functions,   660 primitive gaussians,   400 cartesian basis functions
   133 alpha electrons      133 beta electrons
       nuclear repulsion energy      3673.1321955329 Hartrees.
 NAtoms=   60 NActive=   60 NUniq=   60 SFac= 1.00D+00 NAtFMM=   60 NAOKFM=T Big=T
 One-electron integrals computed using PRISM.
 NBasis=   400 RedAO= T  NBF=   400
 NBsUse=   400 1.00D-06 NBFU=   400
 Harris functional with IExCor=  402 diagonalized for initial guess.
 ExpMin= 1.83D-01 ExpMax= 3.22D+02 ExpMxC= 3.22D+02 IAcc=1 IRadAn=         1 AccDes= 0.00D+00
 HarFok:  IExCor=  402 AccDes= 0.00D+00 IRadAn=         1 IDoV= 1
 ScaDFX=  1.000000  1.000000  1.000000  1.000000
 FoFCou: FMM=F IPFlag=           0 FMFlag=      100000 FMFlg1=        2001
         NFxFlg=           0 DoJE=T BraDBF=F KetDBF=T FulRan=T
         Omega=  0.000000  0.000000  1.000000  0.000000  0.000000 ICntrl=     500 IOpCl=  0
         NMat0=    1 NMatS0=    1 NMatT0=    0 NMatD0=    1 NMtDS0=    0 NMtDT0=    0
         I1Cent=           4 NGrid=           0.
 Petite list used in FoFCou.
 Initial guess orbital symmetries:
       Occupied  (A) (A) (A) (A) (A) (A) (A) (A) (A) (A) (A) (A)
                 (A) (A) (A) (A) (A) (A) (A) (A) (A) (A) (A) (A)
                 (A) (A) (A) (A) (A) (A) (A) (A) (A) (A) (A) (A)
                 (A) (A) (A) (A) (A) (A) (A) (A) (A) (A) (A) (A)
                 (A) (A) (A) (A) (A) (A) (A) (A) (A) (A) (A) (A)
                 (A) (A) (A) (A) (A) (A) (A) (A) (A) (A) (A) (A)
                 (A) (A) (A) (A) (A) (A) (A) (A) (A) (A) (A) (A)
                 (A) (A) (A) (A) (A) (A) (A) (A) (A) (A) (A) (A)
                 (A) (A) (A) (A) (A) (A) (A) (A) (A) (A) (A) (A)
                 (A) (A) (A) (A) (A) (A) (A) (A) (A) (A) (A) (A)
                 (A) (A) (A) (A) (A) (A) (A) (A) (A) (A) (A) (A)
                 (A)
       Virtual   (A) (A) (A) (A) (A) (A) (A) (A) (A) (A) (A) (A)
                 (A) (A) (A) (A) (A) (A) (A) (A) (A) (A) (A) (A)
                 (A) (A) (A) (A) (A) (A) (A) (A) (A) (A) (A) (A)
                 (A) (A) (A) (A) (A) (A) (A) (A) (A) (A) (A) (A)
                 (A) (A) (A) (A) (A) (A) (A) (A) (A) (A) (A) (A)
                 (A) (A) (A) (A) (A) (A) (A) (A) (A) (A) (A) (A)
                 (A) (A) (A) (A) (A) (A) (A) (A) (A) (A) (A) (A)
                 (A) (A) (A) (A) (A) (A) (A) (A) (A) (A) (A) (A)
                 (A) (A) (A) (A) (A) (A) (A) (A) (A) (A) (A) (A)
                 (A) (A) (A) (A) (A) (A) (A) (A) (A) (A) (A) (A)
                 (A) (A) (A) (A) (A) (A) (A) (A) (A) (A) (A) (A)
                 (A) (A) (A) (A) (A) (A) (A) (A) (A) (A) (A) (A)
                 (A) (A) (A) (A) (A) (A) (A) (A) (A) (A) (A) (A)
                 (A) (A) (A) (A) (A) (A) (A) (A) (A) (A) (A) (A)
                 (A) (A) (A) (A) (A) (A) (A) (A) (A) (A) (A) (A)
                 (A) (A) (A) (A) (A) (A) (A) (A) (A) (A) (A) (A)
                 (A) (A) (A) (A) (A) (A) (A) (A) (A) (A) (A) (A)
                 (A) (A) (A) (A) (A) (A) (A) (A) (A) (A) (A) (A)
                 (A) (A) (A) (A) (A) (A) (A) (A) (A) (A) (A) (A)
                 (A) (A) (A) (A) (A) (A) (A) (A) (A) (A) (A) (A)
                 (A) (A) (A) (A) (A) (A) (A) (A) (A) (A) (A) (A)
                 (A) (A) (A) (A) (A) (A) (A) (A) (A) (A) (A) (A)
                 (A) (A) (A)
 The electronic state of the initial guess is 1-A.
 Requested convergence on RMS density matrix=1.00D-08 within 128 cycles.
 Requested convergence on MAX density matrix=1.00D-06.
 Requested convergence on             energy=1.00D-06.
 No special actions if energy rises.
 Integral accuracy reduced to 1.0D-05 until final iterations.
 EnCoef did     1 forward-backward iterations
 Initial convergence to 1.0D-05 achieved.  Increase integral accuracy.
 SCF Done:  E(RB3LYP) =  -1634.68447004     A.U. after   16 cycles
             Convg  =    0.3613D-08             -V/T =  2.0085

 **********************************************************************

            Population analysis using the SCF density.

 **********************************************************************

 Orbital symmetries:
       Occupied  (A) (A) (A) (A) (A) (A) (A) (A) (A) (A) (A) (A)
                 (A) (A) (A) (A) (A) (A) (A) (A) (A) (A) (A) (A)
                 (A) (A) (A) (A) (A) (A) (A) (A) (A) (A) (A) (A)
                 (A) (A) (A) (A) (A) (A) (A) (A) (A) (A) (A) (A)
                 (A) (A) (A) (A) (A) (A) (A) (A) (A) (A) (A) (A)
                 (A) (A) (A) (A) (A) (A) (A) (A) (A) (A) (A) (A)
                 (A) (A) (A) (A) (A) (A) (A) (A) (A) (A) (A) (A)
                 (A) (A) (A) (A) (A) (A) (A) (A) (A) (A) (A) (A)
                 (A) (A) (A) (A) (A) (A) (A) (A) (A) (A) (A) (A)
                 (A) (A) (A) (A) (A) (A) (A) (A) (A) (A) (A) (A)
                 (A) (A) (A) (A) (A) (A) (A) (A) (A) (A) (A) (A)
                 (A)
       Virtual   (A) (A) (A) (A) (A) (A) (A) (A) (A) (A) (A) (A)
                 (A) (A) (A) (A) (A) (A) (A) (A) (A) (A) (A) (A)
                 (A) (A) (A) (A) (A) (A) (A) (A) (A) (A) (A) (A)
                 (A) (A) (A) (A) (A) (A) (A) (A) (A) (A) (A) (A)
                 (A) (A) (A) (A) (A) (A) (A) (A) (A) (A) (A) (A)
                 (A) (A) (A) (A) (A) (A) (A) (A) (A) (A) (A) (A)
                 (A) (A) (A) (A) (A) (A) (A) (A) (A) (A) (A) (A)
                 (A) (A) (A) (A) (A) (A) (A) (A) (A) (A) (A) (A)
                 (A) (A) (A) (A) (A) (A) (A) (A) (A) (A) (A) (A)
                 (A) (A) (A) (A) (A) (A) (A) (A) (A) (A) (A) (A)
                 (A) (A) (A) (A) (A) (A) (A) (A) (A) (A) (A) (A)
                 (A) (A) (A) (A) (A) (A) (A) (A) (A) (A) (A) (A)
                 (A) (A) (A) (A) (A) (A) (A) (A) (A) (A) (A) (A)
                 (A) (A) (A) (A) (A) (A) (A) (A) (A) (A) (A) (A)
                 (A) (A) (A) (A) (A) (A) (A) (A) (A) (A) (A) (A)
                 (A) (A) (A) (A) (A) (A) (A) (A) (A) (A) (A) (A)
                 (A) (A) (A) (A) (A) (A) (A) (A) (A) (A) (A) (A)
                 (A) (A) (A) (A) (A) (A) (A) (A) (A) (A) (A) (A)
                 (A) (A) (A) (A) (A) (A) (A) (A) (A) (A) (A) (A)
                 (A) (A) (A) (A) (A) (A) (A) (A) (A) (A) (A) (A)
                 (A) (A) (A) (A) (A) (A) (A) (A) (A) (A) (A) (A)
                 (A) (A) (A) (A) (A) (A) (A) (A) (A) (A) (A) (A)
                 (A) (A) (A)
 The electronic state is 1-A.
 Alpha  occ. eigenvalues --  -19.13592 -19.13576 -14.26613 -14.26599 -10.23980
 Alpha  occ. eigenvalues --  -10.23976 -10.21238 -10.21219 -10.18525 -10.18510
 Alpha  occ. eigenvalues --  -10.18187 -10.18187 -10.16178 -10.16178 -10.15894
 Alpha  occ. eigenvalues --  -10.15894 -10.14313 -10.14313 -10.14229 -10.14229
 Alpha  occ. eigenvalues --  -10.14129 -10.14129 -10.14009 -10.14008 -10.14002
 Alpha  occ. eigenvalues --  -10.13992 -10.13989 -10.13989 -10.13968 -10.13967
 Alpha  occ. eigenvalues --  -10.13933 -10.13933 -10.13906 -10.13906 -10.13846
 Alpha  occ. eigenvalues --  -10.13846 -10.13691 -10.13691 -10.13621 -10.13621
 Alpha  occ. eigenvalues --   -1.16369  -1.16319  -0.96177  -0.96156  -0.89362
 Alpha  occ. eigenvalues --   -0.87744  -0.87276  -0.87263  -0.87069  -0.82037
 Alpha  occ. eigenvalues --   -0.80504  -0.79447  -0.78437  -0.78365  -0.76155
 Alpha  occ. eigenvalues --   -0.76117  -0.75802  -0.75802  -0.74810  -0.74305
 Alpha  occ. eigenvalues --   -0.72710  -0.69244  -0.66779  -0.65556  -0.64245
 Alpha  occ. eigenvalues --   -0.63617  -0.62760  -0.62385  -0.61808  -0.61808
 Alpha  occ. eigenvalues --   -0.61354  -0.60095  -0.59470  -0.57250  -0.56382
 Alpha  occ. eigenvalues --   -0.55433  -0.55212  -0.54057  -0.53143  -0.51954
 Alpha  occ. eigenvalues --   -0.51145  -0.50246  -0.48786  -0.48710  -0.48659
 Alpha  occ. eigenvalues --   -0.48632  -0.47947  -0.47241  -0.47213  -0.46882
 Alpha  occ. eigenvalues --   -0.46456  -0.45263  -0.44662  -0.44587  -0.44448
 Alpha  occ. eigenvalues --   -0.44024  -0.43771  -0.43760  -0.43561  -0.43561
 Alpha  occ. eigenvalues --   -0.40586  -0.39940  -0.39270  -0.39065  -0.38756
 Alpha  occ. eigenvalues --   -0.38567  -0.37025  -0.36960  -0.36925  -0.36900
 Alpha  occ. eigenvalues --   -0.36894  -0.36878  -0.35888  -0.35887  -0.35810
 Alpha  occ. eigenvalues --   -0.35756  -0.33422  -0.32279  -0.31394  -0.29291
 Alpha  occ. eigenvalues --   -0.29279  -0.29244  -0.27886  -0.27767  -0.27430
 Alpha  occ. eigenvalues --   -0.26523  -0.26458  -0.26366  -0.26193  -0.26193
 Alpha  occ. eigenvalues --   -0.23833  -0.22681  -0.20167
 Alpha virt. eigenvalues --   -0.08607  -0.04424  -0.04114  -0.02367  -0.00643
 Alpha virt. eigenvalues --   -0.00601  -0.00303  -0.00303   0.01224   0.02040
 Alpha virt. eigenvalues --    0.04313   0.04545   0.05689   0.06831   0.08895
 Alpha virt. eigenvalues --    0.09972   0.10425   0.10612   0.10624   0.13145
 Alpha virt. eigenvalues --    0.13190   0.13284   0.15448   0.15579   0.15860
 Alpha virt. eigenvalues --    0.15974   0.16495   0.17056   0.17102   0.17218
 Alpha virt. eigenvalues --    0.17256   0.17266   0.17577   0.18614   0.19998
 Alpha virt. eigenvalues --    0.20170   0.20224   0.20412   0.20729   0.21075
 Alpha virt. eigenvalues --    0.21090   0.21383   0.21654   0.22775   0.23402
 Alpha virt. eigenvalues --    0.23643   0.24019   0.25385   0.26454   0.28889
 Alpha virt. eigenvalues --    0.29493   0.30777   0.30870   0.31452   0.31583
 Alpha virt. eigenvalues --    0.31869   0.31925   0.32041   0.32116   0.32568
 Alpha virt. eigenvalues --    0.32572   0.33608   0.34142   0.35590   0.35994
 Alpha virt. eigenvalues --    0.36483   0.37873   0.39101   0.39600   0.39926
 Alpha virt. eigenvalues --    0.40968   0.44246   0.45294   0.48059   0.48585
 Alpha virt. eigenvalues --    0.53245   0.53517   0.53622   0.53892   0.56782
 Alpha virt. eigenvalues --    0.56871   0.57107   0.57302   0.58933   0.62532
 Alpha virt. eigenvalues --    0.64124   0.64443   0.65234   0.67134   0.67520
 Alpha virt. eigenvalues --    0.67675   0.67862   0.67957   0.68163   0.68800
 Alpha virt. eigenvalues --    0.69000   0.69441   0.69561   0.69909   0.70110
 Alpha virt. eigenvalues --    0.70209   0.70632   0.70798   0.71173   0.71857
 Alpha virt. eigenvalues --    0.72456   0.72469   0.72960   0.73260   0.73409
 Alpha virt. eigenvalues --    0.74606   0.75021   0.75902   0.76135   0.76472
 Alpha virt. eigenvalues --    0.77359   0.77460   0.77461   0.77782   0.77783
 Alpha virt. eigenvalues --    0.78726   0.79317   0.79325   0.79475   0.79644
 Alpha virt. eigenvalues --    0.79657   0.79863   0.80020   0.80102   0.80644
 Alpha virt. eigenvalues --    0.81578   0.81806   0.81935   0.81962   0.82323
 Alpha virt. eigenvalues --    0.82356   0.82356   0.83124   0.83490   0.83859
 Alpha virt. eigenvalues --    0.84563   0.85548   0.86080   0.87555   0.87694
 Alpha virt. eigenvalues --    0.87736   0.87861   0.88641   0.89821   0.90531
 Alpha virt. eigenvalues --    0.92769   0.92948   0.93126   0.93853   0.94000
 Alpha virt. eigenvalues --    0.94582   0.95695   0.95907   0.95947   0.98137
 Alpha virt. eigenvalues --    0.98461   0.99538   0.99774   1.00334   1.00438
 Alpha virt. eigenvalues --    1.00736   1.00987   1.02375   1.02888   1.04572
 Alpha virt. eigenvalues --    1.05085   1.05883   1.06821   1.08205   1.09256
 Alpha virt. eigenvalues --    1.09963   1.10043   1.10582   1.10839   1.12734
 Alpha virt. eigenvalues --    1.13293   1.13350   1.14995   1.15246   1.21471
 Alpha virt. eigenvalues --    1.22596   1.22635   1.24043   1.24217   1.25180
 Alpha virt. eigenvalues --    1.25845   1.28355   1.30474   1.30528   1.31086
 Alpha virt. eigenvalues --    1.31310   1.31624   1.31697   1.33914   1.35237
 Alpha virt. eigenvalues --    1.35900   1.36577   1.37744   1.38512   1.38966
 Alpha virt. eigenvalues --    1.41949   1.42823   1.43767   1.44488   1.44576
 Alpha virt. eigenvalues --    1.44756   1.44759   1.45417   1.46180   1.49263
 Alpha virt. eigenvalues --    1.49700   1.49774   1.51156   1.51788   1.51891
 Alpha virt. eigenvalues --    1.52353   1.52578   1.52604   1.52767   1.53196
 Alpha virt. eigenvalues --    1.53524   1.53852   1.53873   1.54161   1.54243
 Alpha virt. eigenvalues --    1.54436   1.54791   1.56004   1.57426   1.66578
 Alpha virt. eigenvalues --    1.66602   1.68182   1.68189   1.74778   1.77008
 Alpha virt. eigenvalues --    1.80971   1.81408   1.84705   1.85325   1.85565
 Alpha virt. eigenvalues --    1.87101   1.87339   1.91832   1.92525   1.93260
 Alpha virt. eigenvalues --    1.93311   1.94713   1.96641   2.03261   2.13337
 Alpha virt. eigenvalues --    2.16561   2.21812   2.34633   2.46695   2.46746
 Alpha virt. eigenvalues --    2.47486   2.47557   2.59994   3.06688   3.10265
 Alpha virt. eigenvalues --    3.51137   3.65224
     Molecular Orbital Coefficients:
                         129       130       131       132       133
                           O         O         O         O         O
     Eigenvalues --    -0.26193  -0.26193  -0.23833  -0.22681  -0.20167
   1 1   C  1S          0.00000   0.00000   0.00000   0.00000   0.00000
   2        2S          0.00000   0.00000   0.00000   0.00000   0.00000
   3        2PX         0.00000   0.00000   0.00000   0.00000   0.00000
   4        2PY         0.00000   0.00000   0.00000   0.00000   0.00000
   5        2PZ        -0.00103  -0.00080  -0.08968  -0.20445   0.04774
   6        3S          0.00000   0.00000   0.00000   0.00000   0.00000
   7        3PX         0.00000   0.00000   0.00000   0.00000   0.00000
   8        3PY         0.00000   0.00000   0.00000   0.00000   0.00000
   9        3PZ        -0.00098  -0.00065  -0.09465  -0.20343   0.03551
  10 2   C  1S          0.00000   0.00000   0.00000   0.00000   0.00000
  11        2S          0.00000   0.00000   0.00000   0.00000   0.00000
  12        2PX         0.00000   0.00000   0.00000   0.00000   0.00000
  13        2PY         0.00000   0.00000   0.00000   0.00000   0.00000
  14        2PZ         0.00059  -0.00025  -0.06005  -0.14110  -0.10975
  15        3S          0.00000   0.00000   0.00000   0.00000   0.00000
  16        3PX         0.00000   0.00000   0.00000   0.00000   0.00000
  17        3PY         0.00000   0.00000   0.00000   0.00000   0.00000
  18        3PZ         0.00108  -0.00039  -0.06102  -0.14050  -0.10606
  19 3   C  1S          0.00000   0.00000   0.00000   0.00000   0.00000
  20        2S          0.00000   0.00000   0.00000   0.00000   0.00000
  21        2PX         0.00000   0.00000   0.00000   0.00000   0.00000
  22        2PY         0.00000   0.00000   0.00000   0.00000   0.00000
  23        2PZ        -0.00174  -0.00092  -0.00046  -0.02060   0.17349
  24        3S          0.00000   0.00000   0.00000   0.00001   0.00000
  25        3PX         0.00000   0.00000   0.00000   0.00000   0.00000
  26        3PY         0.00000   0.00000   0.00000   0.00000   0.00000
  27        3PZ        -0.00219  -0.00107  -0.00571  -0.02191   0.20605
  28 4   C  1S          0.00000   0.00000   0.00000   0.00000   0.00000
  29        2S          0.00000   0.00000   0.00000   0.00000   0.00000
  30        2PX         0.00000   0.00000   0.00000   0.00000   0.00000
  31        2PY         0.00000   0.00000   0.00000   0.00000   0.00000
  32        2PZ        -0.00164   0.00110  -0.00045   0.02060  -0.17349
  33        3S          0.00000   0.00000   0.00000   0.00000   0.00000
  34        3PX         0.00000   0.00000   0.00000   0.00000   0.00000
  35        3PY         0.00000   0.00000   0.00000   0.00000   0.00000
  36        3PZ        -0.00207   0.00128  -0.00571   0.02191  -0.20605
  37 5   C  1S          0.00000   0.00000   0.00000   0.00000   0.00000
  38        2S          0.00000   0.00000   0.00000   0.00000   0.00000
  39        2PX         0.00000   0.00000   0.00000   0.00000   0.00000
  40        2PY         0.00000   0.00000   0.00000   0.00000   0.00000
  41        2PZ         0.00061   0.00019  -0.06005   0.14111   0.10975
  42        3S          0.00000   0.00000   0.00000   0.00000   0.00000
  43        3PX         0.00000   0.00000   0.00000   0.00000   0.00000
  44        3PY         0.00000   0.00000   0.00000   0.00000   0.00000
  45        3PZ         0.00111   0.00027  -0.06102   0.14050   0.10606
  46 6   C  1S          0.00000   0.00000   0.00000   0.00000   0.00000
  47        2S          0.00000   0.00000   0.00000   0.00000   0.00000
  48        2PX         0.00000   0.00000   0.00000   0.00000   0.00000
  49        2PY         0.00000   0.00000   0.00000   0.00000   0.00000
  50        2PZ        -0.00094   0.00090  -0.08967   0.20446  -0.04774
  51        3S          0.00000   0.00000   0.00000   0.00000   0.00000
  52        3PX         0.00000   0.00000   0.00000   0.00000   0.00000
  53        3PY         0.00000   0.00000   0.00000   0.00000   0.00000
  54        3PZ        -0.00091   0.00074  -0.09464   0.20344  -0.03551
  55 7   O  1S          0.00000   0.00000   0.00000   0.00000   0.00000
  56        2S          0.00000   0.00000   0.00000   0.00000   0.00000
  57        2PX         0.00000   0.00000   0.00000   0.00000   0.00000
  58        2PY         0.00000   0.00000   0.00000   0.00000   0.00000
  59        2PZ         0.00057   0.00085   0.03122   0.07211  -0.08291
  60        3S          0.00000   0.00000   0.00000   0.00000   0.00000
  61        3PX         0.00000   0.00000   0.00000   0.00000   0.00000
  62        3PY         0.00000   0.00000   0.00000   0.00000   0.00000
  63        3PZ         0.00065   0.00098   0.03898   0.08351  -0.10278
  64 8   N  1S          0.00000   0.00000   0.00000   0.00000   0.00000
  65        2S          0.00000   0.00000   0.00000   0.00000   0.00000
  66        2PX         0.00000   0.00000   0.00000   0.00000   0.00000
  67        2PY         0.00000   0.00000   0.00000   0.00000   0.00000
  68        2PZ         0.00283  -0.00047   0.05933   0.08876   0.09116
  69        3S          0.00000   0.00000   0.00000   0.00000   0.00000
  70        3PX         0.00000   0.00000   0.00000   0.00000   0.00000
  71        3PY         0.00000   0.00000   0.00000   0.00000   0.00000
  72        3PZ         0.00304  -0.00053   0.06936   0.09479   0.11031
  73 9   C  1S          0.00000   0.00000   0.00000   0.00000   0.00000
  74        2S          0.00000   0.00000   0.00000   0.00000   0.00000
  75        2PX         0.00000   0.00000   0.00000   0.00000   0.00000
  76        2PY         0.00000   0.00000   0.00000   0.00000   0.00000
  77        2PZ         0.00050   0.00007   0.06150   0.14117   0.07804
  78        3S          0.00000   0.00000   0.00000   0.00000   0.00000
  79        3PX         0.00000   0.00000   0.00000   0.00000   0.00001
  80        3PY         0.00000   0.00000   0.00000   0.00000   0.00000
  81        3PZ         0.00082   0.00015   0.06954   0.16112   0.07822
  82 10  O  1S          0.00000   0.00000   0.00000   0.00000   0.00000
  83        2S          0.00000   0.00000   0.00000   0.00000   0.00000
  84        2PX         0.00000   0.00000   0.00000   0.00000   0.00000
  85        2PY         0.00000   0.00000   0.00000   0.00000   0.00000
  86        2PZ         0.00048  -0.00090   0.03121  -0.07211   0.08291
  87        3S          0.00000   0.00000   0.00000   0.00000   0.00000
  88        3PX         0.00000   0.00000   0.00000   0.00000   0.00000
  89        3PY         0.00000   0.00000   0.00000   0.00000   0.00000
  90        3PZ         0.00054  -0.00104   0.03898  -0.08351   0.10278
  91 11  N  1S          0.00000   0.00000   0.00000   0.00000   0.00000
  92        2S          0.00000   0.00000   0.00000   0.00000   0.00000
  93        2PX         0.00000   0.00000   0.00000   0.00000   0.00000
  94        2PY         0.00000   0.00000   0.00000   0.00000   0.00000
  95        2PZ         0.00286   0.00018   0.05933  -0.08876  -0.09115
  96        3S          0.00000   0.00000   0.00000   0.00000   0.00000
  97        3PX         0.00000   0.00000   0.00000   0.00000   0.00000
  98        3PY         0.00000   0.00000   0.00000   0.00000   0.00000
  99        3PZ         0.00308   0.00022   0.06936  -0.09479  -0.11031
 100 12  C  1S          0.00000   0.00000   0.00000   0.00000   0.00000
 101        2S          0.00000   0.00000   0.00000   0.00000   0.00000
 102        2PX         0.00000   0.00000   0.00000   0.00000   0.00000
 103        2PY         0.00000   0.00000   0.00000   0.00000   0.00000
 104        2PZ         0.00049  -0.00012   0.06150  -0.14117  -0.07804
 105        3S          0.00000   0.00000   0.00000   0.00000   0.00000
 106        3PX         0.00000   0.00000   0.00000   0.00000  -0.00001
 107        3PY         0.00000   0.00000   0.00000   0.00000   0.00000
 108        3PZ         0.00080  -0.00023   0.06953  -0.16112  -0.07822
 109 13  C  1S          0.00000   0.00000   0.00000   0.00000   0.00000
 110        2S          0.00000   0.00000   0.00000   0.00000   0.00000
 111        2PX         0.00000   0.00000   0.00001   0.00000  -0.00001
 112        2PY         0.00000   0.00000   0.00000   0.00000   0.00000
 113        2PZ        -0.00080  -0.00009   0.16871   0.05839  -0.12648
 114        3S          0.00000   0.00000   0.00002   0.00001  -0.00001
 115        3PX         0.00000   0.00000   0.00001   0.00001  -0.00001
 116        3PY         0.00000   0.00000   0.00000   0.00000   0.00000
 117        3PZ        -0.00045   0.00006   0.17397   0.05775  -0.13539
 118 14  C  1S          0.00000   0.00000   0.00000   0.00000   0.00000
 119        2S          0.00000   0.00000   0.00000   0.00000   0.00000
 120        2PX         0.00000   0.00000   0.00000   0.00000   0.00000
 121        2PY         0.00000   0.00000   0.00000   0.00000   0.00000
 122        2PZ         0.00057   0.00056   0.10691   0.04811  -0.17209
 123        3S          0.00000   0.00000  -0.00001  -0.00001   0.00002
 124        3PX         0.00000   0.00000   0.00001   0.00001   0.00000
 125        3PY         0.00000   0.00000   0.00000   0.00000   0.00000
 126        3PZ         0.00038   0.00040   0.09163   0.04517  -0.17216
 127 15  C  1S          0.00000   0.00000   0.00000   0.00000   0.00000
 128        2S          0.00000   0.00000   0.00000   0.00000   0.00000
 129        2PX         0.00000   0.00000   0.00000   0.00000   0.00000
 130        2PY         0.00000   0.00000   0.00000   0.00000   0.00000
 131        2PZ        -0.00079   0.00017   0.16871  -0.05840   0.12649
 132        3S          0.00000   0.00000   0.00001   0.00000   0.00000
 133        3PX         0.00000   0.00000  -0.00001   0.00000   0.00000
 134        3PY         0.00000   0.00000   0.00000   0.00000   0.00000
 135        3PZ        -0.00045  -0.00001   0.17397  -0.05776   0.13540
 136 16  C  1S          0.00000   0.00000   0.00000   0.00000   0.00000
 137        2S          0.00000   0.00000   0.00000   0.00000   0.00000
 138        2PX         0.00000   0.00000   0.00001   0.00000   0.00001
 139        2PY         0.00000   0.00000   0.00000   0.00000   0.00000
 140        2PZ         0.00051  -0.00062   0.10691  -0.04811   0.17210
 141        3S          0.00000   0.00000  -0.00001   0.00000   0.00000
 142        3PX         0.00000   0.00000  -0.00001   0.00000   0.00001
 143        3PY         0.00000   0.00000   0.00000   0.00000   0.00000
 144        3PZ         0.00033  -0.00044   0.09162  -0.04518   0.17217
 145 17  C  1S          0.00000   0.00000   0.00000   0.00000   0.00000
 146        2S          0.00000   0.00000   0.00000   0.00000   0.00000
 147        2PX         0.00000   0.00000   0.00000   0.00000   0.00000
 148        2PY         0.00000   0.00000   0.00000   0.00000   0.00000
 149        2PZ        -0.00413  -0.00011  -0.07282  -0.11379  -0.02947
 150        3S          0.00000   0.00000   0.00000   0.00000   0.00000
 151        3PX         0.00000   0.00000   0.00000   0.00000  -0.00001
 152        3PY         0.00000   0.00000   0.00000   0.00000   0.00000
 153        3PZ        -0.00445  -0.00012  -0.08048  -0.12823  -0.03290
 154 18  C  1S          0.00000   0.00000   0.00000   0.00000   0.00000
 155        2S          0.00000   0.00000   0.00000   0.00000   0.00000
 156        2PX         0.00000   0.00000   0.00000   0.00000   0.00000
 157        2PY         0.00000   0.00000   0.00000   0.00000   0.00000
 158        2PZ        -0.00069  -0.00066  -0.04812  -0.09026  -0.03301
 159        3S          0.00000   0.00000   0.00000   0.00000   0.00000
 160        3PX         0.00000   0.00000   0.00000   0.00000   0.00000
 161        3PY         0.00000   0.00000   0.00000   0.00000   0.00000
 162        3PZ        -0.00066  -0.00065  -0.05027  -0.09535  -0.04284
 163 19  C  1S          0.00000   0.00000   0.00000   0.00000   0.00000
 164        2S          0.00000   0.00000   0.00000   0.00000   0.00000
 165        2PX         0.00000   0.00000   0.00000  -0.00001   0.00000
 166        2PY         0.00000   0.00000   0.00000   0.00000   0.00000
 167        2PZ        -0.00331   0.00049  -0.05173  -0.09284  -0.03899
 168        3S          0.00000   0.00000   0.00000   0.00000   0.00000
 169        3PX         0.00000   0.00000   0.00000  -0.00001   0.00000
 170        3PY         0.00000   0.00000   0.00000   0.00000   0.00000
 171        3PZ        -0.00326   0.00047  -0.05259  -0.09701  -0.03915
 172 20  C  1S          0.00000   0.00000   0.00000   0.00000   0.00000
 173        2S          0.00000   0.00000   0.00000   0.00000   0.00000
 174        2PX         0.00000   0.00000   0.00000   0.00000   0.00000
 175        2PY         0.00000   0.00000   0.00000   0.00000   0.00000
 176        2PZ         0.00330  -0.00052   0.03264   0.04723   0.01632
 177        3S          0.00000   0.00000   0.00000   0.00000   0.00000
 178        3PX         0.00000   0.00000   0.00000   0.00000   0.00000
 179        3PY         0.00000   0.00000   0.00000   0.00000   0.00000
 180        3PZ         0.00342  -0.00056   0.03383   0.04842   0.01933
 181 21  H  1S          0.00000   0.00000   0.00000   0.00000   0.00000
 182        2S          0.00000   0.00000   0.00000   0.00000   0.00000
 183 22  C  1S          0.00000   0.00000   0.00000   0.00000   0.00000
 184        2S          0.00000   0.00000   0.00000   0.00000   0.00000
 185        2PX         0.00000   0.00000   0.00000   0.00000   0.00000
 186        2PY         0.00000   0.00000   0.00000   0.00000   0.00000
 187        2PZ         0.00062   0.00063   0.02721   0.04159   0.00548
 188        3S          0.00000   0.00000   0.00000   0.00000   0.00000
 189        3PX         0.00000   0.00000   0.00000   0.00000   0.00000
 190        3PY         0.00000   0.00000   0.00000   0.00000   0.00000
 191        3PZ         0.00058   0.00067   0.02732   0.04173   0.00285
 192 23  H  1S          0.00000   0.00000   0.00000   0.00000   0.00000
 193        2S          0.00000   0.00000   0.00000   0.00000   0.00000
 194 24  C  1S          0.00000   0.00000   0.00000   0.00000   0.00000
 195        2S          0.00000   0.00000   0.00000   0.00000   0.00000
 196        2PX         0.00000   0.00000   0.00000   0.00001   0.00000
 197        2PY         0.00000   0.00000   0.00000   0.00000   0.00000
 198        2PZ         0.00395   0.00014   0.07494   0.12545   0.04312
 199        3S          0.00000   0.00000   0.00000   0.00000   0.00000
 200        3PX         0.00000   0.00000   0.00000   0.00001   0.00000
 201        3PY         0.00000   0.00000   0.00000   0.00000   0.00000
 202        3PZ         0.00414   0.00015   0.08207   0.14039   0.05036
 203 25  H  1S          0.00000   0.00000   0.00000   0.00000   0.00000
 204        2S          0.00000   0.00000   0.00000   0.00000   0.00000
 205 26  H  1S          0.00000   0.00000   0.00000   0.00000   0.00000
 206        2S          0.00000   0.00000   0.00000   0.00000   0.00000
 207 27  H  1S          0.00000   0.00000   0.00000   0.00000   0.00000
 208        2S          0.00000   0.00000   0.00000   0.00000   0.00000
 209 28  C  1S          0.00000   0.00000   0.00000   0.00000   0.00000
 210        2S          0.00000   0.00000   0.00000   0.00000   0.00000
 211        2PX         0.00000   0.00000   0.00000   0.00000   0.00000
 212        2PY         0.00000   0.00000   0.00000   0.00000   0.00000
 213        2PZ        -0.00409   0.00053  -0.07282   0.11379   0.02947
 214        3S          0.00000   0.00000   0.00000   0.00000   0.00000
 215        3PX         0.00000   0.00000   0.00000   0.00000   0.00001
 216        3PY         0.00000   0.00000   0.00000   0.00000   0.00000
 217        3PZ        -0.00441   0.00057  -0.08048   0.12823   0.03290
 218 29  C  1S          0.00000   0.00000   0.00000   0.00000   0.00000
 219        2S          0.00000   0.00000   0.00000   0.00000   0.00000
 220        2PX         0.00000   0.00000   0.00000   0.00001   0.00000
 221        2PY         0.00000   0.00000   0.00000   0.00000   0.00000
 222        2PZ        -0.00334  -0.00015  -0.05173   0.09284   0.03898
 223        3S          0.00000   0.00000   0.00000   0.00000   0.00000
 224        3PX         0.00000   0.00000   0.00000   0.00001   0.00000
 225        3PY         0.00000   0.00000   0.00000   0.00000   0.00000
 226        3PZ        -0.00329  -0.00014  -0.05259   0.09701   0.03915
 227 30  C  1S          0.00000   0.00000   0.00000   0.00000   0.00000
 228        2S          0.00000   0.00000   0.00000   0.00000   0.00000
 229        2PX         0.00000   0.00000   0.00000   0.00000   0.00000
 230        2PY         0.00000   0.00000   0.00000   0.00000   0.00000
 231        2PZ        -0.00062   0.00072  -0.04811   0.09026   0.03301
 232        3S          0.00000   0.00000   0.00000   0.00000   0.00000
 233        3PX         0.00000   0.00000   0.00000   0.00000   0.00001
 234        3PY         0.00000   0.00000   0.00000   0.00000   0.00000
 235        3PZ        -0.00059   0.00072  -0.05027   0.09535   0.04284
 236 31  C  1S          0.00000   0.00000   0.00000   0.00000   0.00000
 237        2S          0.00000   0.00000   0.00000   0.00000   0.00000
 238        2PX         0.00000   0.00000   0.00000   0.00000   0.00000
 239        2PY         0.00000   0.00000   0.00000   0.00000   0.00000
 240        2PZ         0.00055  -0.00069   0.02721  -0.04159  -0.00547
 241        3S          0.00000   0.00000   0.00000   0.00000   0.00000
 242        3PX         0.00000   0.00000   0.00000   0.00000   0.00000
 243        3PY         0.00000   0.00000   0.00000   0.00000   0.00000
 244        3PZ         0.00051  -0.00072   0.02732  -0.04173  -0.00285
 245 32  H  1S          0.00000   0.00000   0.00000   0.00000   0.00000
 246        2S          0.00000   0.00000   0.00000   0.00000   0.00000
 247 33  C  1S          0.00000   0.00000   0.00000   0.00000   0.00000
 248        2S          0.00000   0.00000   0.00000   0.00000   0.00000
 249        2PX         0.00000   0.00000   0.00000   0.00000   0.00000
 250        2PY         0.00000   0.00000   0.00000   0.00000   0.00000
 251        2PZ         0.00334   0.00018   0.03264  -0.04723  -0.01632
 252        3S          0.00000   0.00000   0.00000   0.00000   0.00000
 253        3PX         0.00000   0.00000   0.00000   0.00000   0.00000
 254        3PY         0.00000   0.00000   0.00000   0.00000   0.00000
 255        3PZ         0.00346   0.00020   0.03383  -0.04842  -0.01933
 256 34  H  1S          0.00000   0.00000   0.00000   0.00000   0.00000
 257        2S          0.00000   0.00000   0.00000   0.00000   0.00000
 258 35  C  1S          0.00000   0.00000   0.00000   0.00000   0.00000
 259        2S          0.00000   0.00000   0.00000   0.00000   0.00000
 260        2PX         0.00000   0.00000   0.00000  -0.00001   0.00000
 261        2PY         0.00000   0.00000   0.00000   0.00000   0.00000
 262        2PZ         0.00392  -0.00054   0.07494  -0.12545  -0.04312
 263        3S          0.00000   0.00000   0.00000   0.00000   0.00000
 264        3PX         0.00000   0.00000   0.00000  -0.00001   0.00000
 265        3PY         0.00000   0.00000   0.00000   0.00000   0.00000
 266        3PZ         0.00410  -0.00057   0.08207  -0.14039  -0.05036
 267 36  H  1S          0.00000   0.00000   0.00000   0.00000   0.00000
 268        2S          0.00000   0.00000   0.00000   0.00000   0.00000
 269 37  H  1S          0.00000   0.00000   0.00000   0.00000   0.00000
 270        2S          0.00000   0.00000   0.00000   0.00000   0.00000
 271 38  H  1S          0.00000   0.00000   0.00000   0.00000   0.00000
 272        2S          0.00000   0.00000   0.00000   0.00000   0.00000
 273 39  C  1S          0.00000   0.00000   0.00000   0.00000   0.00000
 274        2S          0.00000   0.00000   0.00000   0.00000   0.00000
 275        2PX         0.00000   0.00000   0.00001   0.00000   0.00000
 276        2PY         0.00000   0.00000   0.00000   0.00000   0.00000
 277        2PZ         0.00150   0.00055  -0.13995  -0.04224   0.07831
 278        3S          0.00000   0.00000  -0.00001  -0.00001   0.00000
 279        3PX         0.00000   0.00000   0.00002   0.00001  -0.00001
 280        3PY         0.00000   0.00000   0.00000   0.00000   0.00000
 281        3PZ         0.00179   0.00077  -0.14548  -0.04522   0.08514
 282 40  C  1S          0.00000   0.00000   0.00000   0.00000   0.00000
 283        2S          0.00000   0.00000   0.00000   0.00000   0.00000
 284        2PX        -0.00001  -0.00001   0.00001   0.00000  -0.00001
 285        2PY         0.00000   0.00000   0.00000   0.00000   0.00000
 286        2PZ         0.18984   0.17095  -0.09347  -0.03332   0.09073
 287        3S          0.00000   0.00000   0.00000   0.00000   0.00000
 288        3PX        -0.00001  -0.00001   0.00001   0.00000  -0.00001
 289        3PY         0.00000   0.00000   0.00000   0.00000   0.00000
 290        3PZ         0.19603   0.17653  -0.10000  -0.03603   0.10260
 291 41  C  1S          0.00000   0.00000   0.00000   0.00000   0.00000
 292        2S          0.00000   0.00000   0.00000   0.00000   0.00000
 293        2PX         0.00001   0.00001   0.00001   0.00000  -0.00001
 294        2PY         0.00000   0.00000   0.00000   0.00000   0.00000
 295        2PZ        -0.18889  -0.17083  -0.09190  -0.03260   0.09029
 296        3S          0.00000   0.00000   0.00000   0.00000   0.00000
 297        3PX         0.00001   0.00001   0.00001   0.00000  -0.00001
 298        3PY         0.00000   0.00000   0.00000   0.00000   0.00000
 299        3PZ        -0.19571  -0.17699  -0.09878  -0.03548   0.10251
 300 42  C  1S          0.00000   0.00000   0.00000   0.00000   0.00000
 301        2S          0.00000   0.00000   0.00000   0.00000   0.00000
 302        2PX        -0.00001  -0.00001   0.00000   0.00000   0.00000
 303        2PY         0.00000   0.00000   0.00000   0.00000   0.00000
 304        2PZ         0.18771   0.16979   0.05740   0.01624  -0.02833
 305        3S          0.00000   0.00000   0.00000   0.00000   0.00000
 306        3PX        -0.00001  -0.00001   0.00000   0.00000   0.00000
 307        3PY         0.00000   0.00000   0.00000   0.00000   0.00000
 308        3PZ         0.19436   0.17580   0.05996   0.01686  -0.02868
 309 43  H  1S          0.00000   0.00000   0.00000   0.00000   0.00000
 310        2S          0.00000   0.00000   0.00000   0.00000   0.00000
 311 44  C  1S          0.00000   0.00000   0.00000   0.00000   0.00000
 312        2S          0.00000   0.00000   0.00000   0.00000   0.00000
 313        2PX         0.00001   0.00001   0.00000   0.00000   0.00000
 314        2PY         0.00000   0.00000   0.00000   0.00000   0.00000
 315        2PZ        -0.18813  -0.16939   0.05972   0.01740  -0.02953
 316        3S          0.00000   0.00000   0.00000   0.00000   0.00000
 317        3PX         0.00001   0.00001   0.00000   0.00000   0.00000
 318        3PY         0.00000   0.00000   0.00000   0.00000   0.00000
 319        3PZ        -0.19484  -0.17544   0.06268   0.01824  -0.03021
 320 45  H  1S          0.00000   0.00000   0.00000   0.00000   0.00000
 321        2S          0.00000   0.00000   0.00000   0.00000   0.00000
 322 46  C  1S          0.00000   0.00000   0.00000   0.00000   0.00000
 323        2S          0.00000   0.00000   0.00000   0.00000   0.00000
 324        2PX         0.00000   0.00000  -0.00001   0.00000   0.00001
 325        2PY         0.00000   0.00000   0.00000   0.00000   0.00000
 326        2PZ        -0.00040   0.00040   0.14313   0.04621  -0.10957
 327        3S          0.00000   0.00000   0.00000   0.00000   0.00000
 328        3PX         0.00000   0.00000  -0.00001   0.00000   0.00001
 329        3PY         0.00000   0.00000   0.00000   0.00000   0.00000
 330        3PZ        -0.00036   0.00048   0.15533   0.05127  -0.12759
 331 47  H  1S          0.00000   0.00000   0.00000   0.00000   0.00000
 332        2S          0.00000   0.00000   0.00000   0.00000   0.00000
 333 48  H  1S          0.00000   0.00000   0.00000   0.00000   0.00000
 334        2S          0.00000   0.00000   0.00000   0.00000   0.00000
 335 49  H  1S          0.00000   0.00000   0.00000   0.00000   0.00000
 336        2S          0.00000   0.00000   0.00000   0.00000   0.00000
 337 50  C  1S          0.00000   0.00000   0.00000   0.00000   0.00000
 338        2S          0.00000   0.00000   0.00000   0.00000   0.00000
 339        2PX         0.00000   0.00000  -0.00001   0.00000   0.00000
 340        2PY         0.00000   0.00000   0.00000   0.00000   0.00000
 341        2PZ         0.00143  -0.00070  -0.13994   0.04224  -0.07831
 342        3S          0.00000   0.00000  -0.00001   0.00000   0.00000
 343        3PX         0.00000   0.00000  -0.00001   0.00000  -0.00001
 344        3PY         0.00000   0.00000   0.00000   0.00000   0.00000
 345        3PZ         0.00170  -0.00095  -0.14547   0.04522  -0.08514
 346 51  C  1S          0.00000   0.00000   0.00000   0.00000   0.00000
 347        2S          0.00000   0.00000   0.00000   0.00000   0.00000
 348        2PX        -0.00001   0.00001   0.00000   0.00000   0.00000
 349        2PY         0.00000   0.00000   0.00000   0.00000   0.00000
 350        2PZ        -0.17037   0.18930  -0.09190   0.03260  -0.09030
 351        3S          0.00000   0.00000   0.00000   0.00000   0.00000
 352        3PX        -0.00001   0.00001   0.00000   0.00000   0.00000
 353        3PY         0.00000   0.00000   0.00000   0.00000   0.00000
 354        3PZ        -0.17653   0.19612  -0.09878   0.03549  -0.10251
 355 52  C  1S          0.00000   0.00000   0.00000   0.00000   0.00000
 356        2S          0.00000   0.00000   0.00000   0.00000   0.00000
 357        2PX         0.00001  -0.00001   0.00000   0.00000   0.00000
 358        2PY         0.00000   0.00000   0.00000   0.00000   0.00000
 359        2PZ         0.17131  -0.18951  -0.09347   0.03333  -0.09073
 360        3S          0.00000   0.00000   0.00000   0.00000   0.00000
 361        3PX         0.00001  -0.00001   0.00000   0.00000   0.00000
 362        3PY         0.00000   0.00000   0.00000   0.00000   0.00000
 363        3PZ         0.17689  -0.19570  -0.09999   0.03603  -0.10260
 364 53  C  1S          0.00000   0.00000   0.00000   0.00000   0.00000
 365        2S          0.00000   0.00000   0.00000   0.00000   0.00000
 366        2PX        -0.00001   0.00001   0.00000   0.00000   0.00000
 367        2PY         0.00000   0.00000   0.00000   0.00000   0.00000
 368        2PZ        -0.16977   0.18779   0.05971  -0.01741   0.02953
 369        3S          0.00000   0.00000   0.00000   0.00000   0.00000
 370        3PX        -0.00001   0.00001   0.00000   0.00000   0.00000
 371        3PY         0.00000   0.00000   0.00000   0.00000   0.00000
 372        3PZ        -0.17583   0.19449   0.06268  -0.01824   0.03021
 373 54  H  1S          0.00000   0.00000   0.00000   0.00000   0.00000
 374        2S          0.00000   0.00000   0.00000   0.00000   0.00000
 375 55  C  1S          0.00000   0.00000   0.00000   0.00000   0.00000
 376        2S          0.00000   0.00000   0.00000   0.00000   0.00000
 377        2PX         0.00001  -0.00001   0.00000   0.00000   0.00000
 378        2PY         0.00000   0.00000   0.00000   0.00000   0.00000
 379        2PZ         0.16931  -0.18814   0.05740  -0.01624   0.02833
 380        3S          0.00000   0.00000   0.00000   0.00000   0.00000
 381        3PX         0.00001  -0.00001   0.00000   0.00000   0.00000
 382        3PY         0.00000   0.00000   0.00000   0.00000   0.00000
 383        3PZ         0.17531  -0.19480   0.05995  -0.01686   0.02868
 384 56  H  1S          0.00000   0.00000   0.00000   0.00000   0.00000
 385        2S          0.00000   0.00000   0.00000   0.00000   0.00000
 386 57  C  1S          0.00000   0.00000   0.00000   0.00000   0.00000
 387        2S          0.00000   0.00000   0.00000   0.00000   0.00000
 388        2PX         0.00000   0.00000   0.00001   0.00000   0.00001
 389        2PY         0.00000   0.00000   0.00000   0.00000   0.00000
 390        2PZ        -0.00044  -0.00036   0.14312  -0.04621   0.10958
 391        3S          0.00000   0.00000   0.00000   0.00000   0.00000
 392        3PX         0.00000   0.00000   0.00001   0.00000   0.00001
 393        3PY         0.00000   0.00000   0.00000   0.00000   0.00000
 394        3PZ        -0.00040  -0.00044   0.15532  -0.05127   0.12759
 395 58  H  1S          0.00000   0.00000   0.00000   0.00000   0.00000
 396        2S          0.00000   0.00000   0.00000   0.00000   0.00000
 397 59  H  1S          0.00000   0.00000   0.00000   0.00000   0.00000
 398        2S          0.00000   0.00000   0.00000   0.00000   0.00000
 399 60  H  1S          0.00000   0.00000   0.00000   0.00000   0.00000
 400        2S          0.00000   0.00000   0.00000   0.00000   0.00000
                         134       135       136       137       138
                           V         V         V         V         V
     Eigenvalues --    -0.08607  -0.04424  -0.04114  -0.02367  -0.00643
   1 1   C  1S          0.00000   0.00000   0.00000   0.00000   0.00000
   2        2S          0.00000   0.00000   0.00000   0.00000   0.00000
   3        2PX         0.00000   0.00000   0.00000   0.00000   0.00000
   4        2PY         0.00000   0.00000   0.00000   0.00000   0.00000
   5        2PZ        -0.05872   0.14395   0.10931   0.04577   0.03172
   6        3S          0.00000   0.00001   0.00000  -0.00001   0.00000
   7        3PX         0.00000   0.00000   0.00000   0.00000   0.00000
   8        3PY        -0.00001   0.00000   0.00000   0.00001  -0.00001
   9        3PZ        -0.08923   0.19500   0.12603   0.05898   0.05044
  10 2   C  1S          0.00000   0.00000   0.00000   0.00000   0.00000
  11        2S          0.00000   0.00000   0.00000   0.00000   0.00000
  12        2PX         0.00000   0.00000   0.00000   0.00000   0.00000
  13        2PY         0.00000   0.00000   0.00000   0.00000   0.00000
  14        2PZ        -0.11992  -0.00695   0.03018  -0.08441  -0.03103
  15        3S          0.00000   0.00000   0.00000   0.00000   0.00000
  16        3PX         0.00000   0.00000   0.00000   0.00000   0.00000
  17        3PY         0.00000   0.00001   0.00000   0.00000   0.00000
  18        3PZ        -0.17743  -0.01687   0.02182  -0.10548  -0.05173
  19 3   C  1S          0.00000   0.00000   0.00000   0.00000   0.00000
  20        2S          0.00000   0.00000   0.00000   0.00000   0.00000
  21        2PX         0.00000   0.00000   0.00000   0.00000   0.00000
  22        2PY         0.00000   0.00000   0.00000   0.00000   0.00000
  23        2PZ         0.19128  -0.04954  -0.02775   0.03929  -0.00384
  24        3S          0.00001   0.00000  -0.00001  -0.00001   0.00000
  25        3PX         0.00001   0.00001   0.00000  -0.00002   0.00001
  26        3PY         0.00000   0.00000   0.00000   0.00000   0.00000
  27        3PZ         0.27691  -0.06476  -0.03998   0.05516  -0.00547
  28 4   C  1S          0.00000   0.00000   0.00000   0.00000   0.00000
  29        2S          0.00000   0.00000   0.00000   0.00000   0.00000
  30        2PX         0.00000   0.00000   0.00000   0.00000   0.00000
  31        2PY         0.00000   0.00000   0.00000   0.00000   0.00000
  32        2PZ         0.19128  -0.04954   0.02775  -0.03930  -0.00384
  33        3S          0.00001  -0.00001   0.00000   0.00002   0.00000
  34        3PX        -0.00001   0.00002  -0.00001  -0.00001   0.00000
  35        3PY         0.00000  -0.00001   0.00000   0.00000   0.00000
  36        3PZ         0.27691  -0.06476   0.03997  -0.05517  -0.00547
  37 5   C  1S          0.00000   0.00000   0.00000   0.00000   0.00000
  38        2S          0.00000   0.00000   0.00000   0.00000   0.00000
  39        2PX         0.00000   0.00000   0.00000   0.00000   0.00000
  40        2PY         0.00000   0.00000   0.00000   0.00000   0.00000
  41        2PZ        -0.11992  -0.00695  -0.03018   0.08441  -0.03103
  42        3S          0.00000   0.00000   0.00000   0.00000   0.00000
  43        3PX         0.00000   0.00000   0.00000   0.00000   0.00000
  44        3PY         0.00000   0.00000   0.00000  -0.00001   0.00000
  45        3PZ        -0.17743  -0.01687  -0.02182   0.10548  -0.05172
  46 6   C  1S          0.00000   0.00000   0.00000   0.00000   0.00000
  47        2S          0.00000   0.00000   0.00000   0.00000   0.00000
  48        2PX         0.00000   0.00000   0.00000   0.00000   0.00000
  49        2PY         0.00000   0.00000   0.00000   0.00000   0.00000
  50        2PZ        -0.05872   0.14396  -0.10929  -0.04576   0.03172
  51        3S          0.00000  -0.00001   0.00001   0.00000   0.00000
  52        3PX         0.00000   0.00000   0.00000   0.00000   0.00000
  53        3PY         0.00000  -0.00001   0.00000   0.00000  -0.00001
  54        3PZ        -0.08923   0.19502  -0.12601  -0.05897   0.05044
  55 7   O  1S          0.00000   0.00000   0.00000   0.00000   0.00000
  56        2S          0.00000   0.00000   0.00000   0.00000   0.00000
  57        2PX         0.00000   0.00000   0.00000   0.00000   0.00000
  58        2PY         0.00000   0.00000   0.00000   0.00000   0.00000
  59        2PZ        -0.04575  -0.12057  -0.11182  -0.00453  -0.00448
  60        3S          0.00000   0.00000   0.00000   0.00000   0.00000
  61        3PX         0.00000   0.00000   0.00000   0.00000   0.00000
  62        3PY         0.00000   0.00000   0.00000   0.00000   0.00000
  63        3PZ        -0.05639  -0.16157  -0.14440  -0.00994  -0.01382
  64 8   N  1S          0.00000   0.00000   0.00000   0.00000   0.00000
  65        2S          0.00000   0.00000   0.00000   0.00000   0.00000
  66        2PX         0.00000   0.00000   0.00000   0.00000   0.00000
  67        2PY         0.00000   0.00000   0.00000   0.00000   0.00000
  68        2PZ        -0.06448  -0.10885  -0.15803   0.07002   0.00763
  69        3S          0.00000   0.00000   0.00000   0.00000   0.00000
  70        3PX         0.00000   0.00000   0.00000   0.00000   0.00000
  71        3PY         0.00000   0.00000   0.00000   0.00000   0.00000
  72        3PZ        -0.08292  -0.15307  -0.21545   0.10344   0.02324
  73 9   C  1S          0.00000   0.00000   0.00000   0.00000   0.00000
  74        2S          0.00000   0.00000   0.00000   0.00000   0.00000
  75        2PX         0.00000   0.00000   0.00000   0.00000   0.00000
  76        2PY         0.00000   0.00000   0.00000   0.00000   0.00000
  77        2PZ         0.16856   0.11673   0.13627  -0.01938   0.00042
  78        3S         -0.00001  -0.00001  -0.00001   0.00000   0.00000
  79        3PX         0.00000   0.00001   0.00000   0.00000   0.00001
  80        3PY         0.00000   0.00000   0.00000   0.00000   0.00000
  81        3PZ         0.18050   0.12682   0.14547  -0.02125  -0.00086
  82 10  O  1S          0.00000   0.00000   0.00000   0.00000   0.00000
  83        2S          0.00000   0.00000   0.00000   0.00000   0.00000
  84        2PX         0.00000   0.00000   0.00000   0.00000   0.00000
  85        2PY         0.00000   0.00000   0.00000   0.00000   0.00000
  86        2PZ        -0.04575  -0.12058   0.11181   0.00452  -0.00448
  87        3S          0.00000   0.00000   0.00000   0.00000   0.00000
  88        3PX         0.00000   0.00000   0.00000   0.00000   0.00000
  89        3PY         0.00000   0.00000   0.00000   0.00000   0.00000
  90        3PZ        -0.05638  -0.16158   0.14438   0.00993  -0.01382
  91 11  N  1S          0.00000   0.00000   0.00000   0.00000   0.00000
  92        2S          0.00000   0.00000   0.00000   0.00000   0.00000
  93        2PX         0.00000   0.00000   0.00000   0.00000   0.00000
  94        2PY         0.00000   0.00000   0.00000   0.00000   0.00000
  95        2PZ        -0.06448  -0.10886   0.15802  -0.07003   0.00763
  96        3S          0.00000   0.00000   0.00000   0.00000   0.00000
  97        3PX         0.00000   0.00000   0.00000   0.00000   0.00000
  98        3PY         0.00000   0.00000   0.00000   0.00000   0.00000
  99        3PZ        -0.08292  -0.15308   0.21544  -0.10344   0.02324
 100 12  C  1S          0.00000   0.00000   0.00000   0.00000   0.00000
 101        2S          0.00000   0.00000   0.00000   0.00000   0.00000
 102        2PX         0.00000   0.00000   0.00000   0.00000   0.00000
 103        2PY         0.00000   0.00000   0.00000   0.00000   0.00000
 104        2PZ         0.16856   0.11675  -0.13627   0.01939   0.00042
 105        3S          0.00001   0.00001  -0.00001   0.00000   0.00000
 106        3PX         0.00000   0.00001   0.00000   0.00000   0.00000
 107        3PY         0.00000   0.00000   0.00000   0.00000   0.00000
 108        3PZ         0.18050   0.12684  -0.14546   0.02126  -0.00086
 109 13  C  1S          0.00000   0.00000   0.00000   0.00000   0.00000
 110        2S          0.00000   0.00000   0.00000   0.00000   0.00000
 111        2PX         0.00000   0.00000   0.00000   0.00000   0.00000
 112        2PY         0.00000   0.00000   0.00000   0.00000   0.00000
 113        2PZ         0.05608  -0.09240  -0.05001  -0.15288   0.00312
 114        3S          0.00002  -0.00001  -0.00001  -0.00005   0.00000
 115        3PX         0.00003   0.00000  -0.00002  -0.00006   0.00001
 116        3PY         0.00000   0.00000   0.00000   0.00001   0.00000
 117        3PZ         0.07185  -0.15027  -0.06871  -0.22458   0.00473
 118 14  C  1S          0.00000   0.00000   0.00000   0.00000   0.00000
 119        2S          0.00000   0.00000   0.00000   0.00000   0.00000
 120        2PX         0.00000   0.00000   0.00000   0.00000   0.00000
 121        2PY         0.00000   0.00000   0.00000   0.00000   0.00000
 122        2PZ        -0.14487   0.08154   0.03872   0.05631   0.00049
 123        3S          0.00001  -0.00002   0.00000   0.00002   0.00000
 124        3PX         0.00003  -0.00001  -0.00002  -0.00007   0.00000
 125        3PY         0.00000   0.00000   0.00000   0.00001   0.00000
 126        3PZ        -0.18405   0.12453   0.05559   0.08981   0.00051
 127 15  C  1S          0.00000   0.00000   0.00000   0.00000   0.00000
 128        2S          0.00000   0.00000   0.00000   0.00000   0.00000
 129        2PX         0.00000   0.00000   0.00000   0.00000   0.00000
 130        2PY         0.00000   0.00000   0.00000   0.00000   0.00000
 131        2PZ         0.05608  -0.09241   0.05000   0.15288   0.00312
 132        3S          0.00001  -0.00001   0.00001   0.00001   0.00000
 133        3PX        -0.00002   0.00003  -0.00001  -0.00002   0.00000
 134        3PY         0.00000   0.00000   0.00000   0.00000   0.00000
 135        3PZ         0.07186  -0.15029   0.06870   0.22458   0.00473
 136 16  C  1S          0.00000   0.00000   0.00000   0.00000   0.00000
 137        2S          0.00000   0.00000   0.00000   0.00000   0.00000
 138        2PX        -0.00001   0.00000   0.00000   0.00000   0.00000
 139        2PY         0.00000   0.00000   0.00000   0.00000   0.00000
 140        2PZ        -0.14487   0.08154  -0.03871  -0.05631   0.00049
 141        3S         -0.00001   0.00002  -0.00001  -0.00001   0.00000
 142        3PX        -0.00002   0.00004  -0.00002  -0.00003   0.00000
 143        3PY         0.00000   0.00000   0.00000   0.00000   0.00000
 144        3PZ        -0.18405   0.12454  -0.05557  -0.08980   0.00051
 145 17  C  1S          0.00000   0.00000   0.00000   0.00000   0.00000
 146        2S          0.00000   0.00000   0.00000   0.00000   0.00000
 147        2PX         0.00000   0.00000   0.00001   0.00000   0.00000
 148        2PY         0.00000   0.00000  -0.00001   0.00000   0.00000
 149        2PZ         0.04432   0.11291   0.14840  -0.05791  -0.00891
 150        3S          0.00001   0.00000   0.00000   0.00000   0.00000
 151        3PX         0.00000   0.00000   0.00000   0.00000   0.00000
 152        3PY        -0.00001   0.00000  -0.00001   0.00000   0.00000
 153        3PZ         0.07967   0.18141   0.24076  -0.09364  -0.01444
 154 18  C  1S          0.00000   0.00000   0.00000   0.00000   0.00000
 155        2S          0.00000   0.00000   0.00000   0.00000   0.00000
 156        2PX         0.00000   0.00000  -0.00001   0.00000  -0.00001
 157        2PY         0.00000   0.00000   0.00000   0.00000   0.00000
 158        2PZ        -0.08192  -0.09239  -0.11414   0.02593  -0.18540
 159        3S          0.00001   0.00000   0.00001   0.00000   0.00000
 160        3PX        -0.00001  -0.00001  -0.00001   0.00000  -0.00001
 161        3PY         0.00000   0.00000   0.00000   0.00000   0.00001
 162        3PZ        -0.11817  -0.14814  -0.18144   0.03917  -0.31881
 163 19  C  1S          0.00000   0.00000   0.00000   0.00000   0.00000
 164        2S          0.00000   0.00000   0.00000   0.00000   0.00000
 165        2PX         0.00000   0.00000  -0.00001   0.00000   0.00001
 166        2PY         0.00000   0.00000   0.00000   0.00000   0.00000
 167        2PZ        -0.08047  -0.08802  -0.11398   0.04339   0.19597
 168        3S         -0.00001  -0.00001   0.00000   0.00000   0.00000
 169        3PX        -0.00001  -0.00001  -0.00001   0.00000   0.00001
 170        3PY         0.00000   0.00001   0.00001   0.00000  -0.00001
 171        3PZ        -0.11596  -0.13878  -0.18380   0.07553   0.33461
 172 20  C  1S          0.00000   0.00000   0.00000   0.00000   0.00000
 173        2S          0.00000   0.00000   0.00000   0.00000   0.00000
 174        2PX         0.00000   0.00000   0.00000   0.00000   0.00001
 175        2PY         0.00000   0.00000   0.00000   0.00000   0.00000
 176        2PZ        -0.01476  -0.04084  -0.05896   0.03533   0.19751
 177        3S          0.00000   0.00000   0.00000   0.00000   0.00000
 178        3PX         0.00000   0.00000   0.00000   0.00000   0.00001
 179        3PY         0.00000   0.00000   0.00000   0.00000  -0.00001
 180        3PZ        -0.02548  -0.06632  -0.09674   0.05975   0.33819
 181 21  H  1S          0.00000   0.00000   0.00000   0.00000   0.00000
 182        2S          0.00000   0.00000   0.00000   0.00000   0.00000
 183 22  C  1S          0.00000   0.00000   0.00000   0.00000   0.00000
 184        2S          0.00000   0.00000   0.00000   0.00000   0.00000
 185        2PX         0.00000   0.00000   0.00000   0.00000  -0.00001
 186        2PY         0.00000   0.00000   0.00000   0.00000   0.00000
 187        2PZ        -0.01703  -0.04670  -0.05816   0.01432  -0.18669
 188        3S          0.00000   0.00000   0.00000   0.00000   0.00000
 189        3PX         0.00000   0.00000   0.00000   0.00000  -0.00001
 190        3PY         0.00000   0.00000   0.00000   0.00000   0.00001
 191        3PZ        -0.02854  -0.07598  -0.09406   0.02239  -0.31883
 192 23  H  1S          0.00000   0.00000   0.00000   0.00000   0.00000
 193        2S          0.00000   0.00000   0.00000   0.00000   0.00000
 194 24  C  1S          0.00000   0.00000   0.00000   0.00000   0.00000
 195        2S          0.00000   0.00000   0.00000   0.00000   0.00000
 196        2PX         0.00000   0.00001   0.00001   0.00000   0.00000
 197        2PY         0.00000   0.00000   0.00000   0.00000   0.00000
 198        2PZ         0.09321   0.12647   0.16332  -0.05748  -0.01151
 199        3S          0.00000   0.00000   0.00000   0.00000   0.00000
 200        3PX         0.00001   0.00001   0.00001   0.00000   0.00000
 201        3PY         0.00000   0.00000  -0.00001   0.00000   0.00000
 202        3PZ         0.13384   0.19819   0.25762  -0.09421  -0.01985
 203 25  H  1S          0.00000   0.00000   0.00000   0.00000   0.00000
 204        2S          0.00000   0.00000   0.00000   0.00000   0.00000
 205 26  H  1S          0.00000   0.00000   0.00000   0.00000   0.00000
 206        2S          0.00000   0.00000   0.00000   0.00000   0.00000
 207 27  H  1S          0.00000   0.00000   0.00000   0.00000   0.00000
 208        2S          0.00000   0.00000   0.00000   0.00000   0.00000
 209 28  C  1S          0.00000   0.00000   0.00000   0.00000   0.00000
 210        2S          0.00000   0.00000   0.00000   0.00000   0.00000
 211        2PX         0.00000   0.00001  -0.00001   0.00000   0.00000
 212        2PY         0.00000   0.00000   0.00001   0.00000   0.00000
 213        2PZ         0.04432   0.11292  -0.14839   0.05791  -0.00892
 214        3S         -0.00001   0.00000   0.00000   0.00000   0.00000
 215        3PX         0.00000   0.00000   0.00000   0.00000   0.00000
 216        3PY        -0.00001  -0.00001   0.00001   0.00000   0.00000
 217        3PZ         0.07967   0.18143  -0.24074   0.09365  -0.01444
 218 29  C  1S          0.00000   0.00000   0.00000   0.00000   0.00000
 219        2S          0.00000   0.00000   0.00000   0.00000   0.00000
 220        2PX        -0.00001  -0.00001   0.00001   0.00000   0.00001
 221        2PY         0.00000   0.00000   0.00000   0.00000   0.00000
 222        2PZ        -0.08047  -0.08803   0.11397  -0.04339   0.19594
 223        3S          0.00001   0.00001  -0.00001   0.00000   0.00000
 224        3PX        -0.00001  -0.00001   0.00001   0.00000   0.00002
 225        3PY         0.00001   0.00001  -0.00001   0.00000  -0.00001
 226        3PZ        -0.11596  -0.13880   0.18378  -0.07554   0.33456
 227 30  C  1S          0.00000   0.00000   0.00000   0.00000   0.00000
 228        2S          0.00000   0.00000   0.00000   0.00000   0.00000
 229        2PX         0.00000   0.00000   0.00001   0.00000  -0.00001
 230        2PY         0.00000   0.00000   0.00000   0.00000   0.00000
 231        2PZ        -0.08192  -0.09240   0.11413  -0.02593  -0.18537
 232        3S         -0.00001  -0.00001   0.00001   0.00000   0.00000
 233        3PX        -0.00001  -0.00001   0.00001   0.00000  -0.00002
 234        3PY         0.00000   0.00000   0.00000   0.00000   0.00001
 235        3PZ        -0.11817  -0.14815   0.18143  -0.03917  -0.31876
 236 31  C  1S          0.00000   0.00000   0.00000   0.00000   0.00000
 237        2S          0.00000   0.00000   0.00000   0.00000   0.00000
 238        2PX         0.00000   0.00000   0.00000   0.00000  -0.00001
 239        2PY         0.00000   0.00000   0.00000   0.00000   0.00000
 240        2PZ        -0.01703  -0.04670   0.05816  -0.01432  -0.18666
 241        3S          0.00000   0.00000   0.00000   0.00000   0.00000
 242        3PX         0.00000   0.00000   0.00000   0.00000  -0.00001
 243        3PY         0.00000   0.00000   0.00000   0.00000   0.00001
 244        3PZ        -0.02854  -0.07599   0.09406  -0.02239  -0.31878
 245 32  H  1S          0.00000   0.00000   0.00000   0.00000   0.00000
 246        2S          0.00000   0.00000   0.00000   0.00000   0.00000
 247 33  C  1S          0.00000   0.00000   0.00000   0.00000   0.00000
 248        2S          0.00000   0.00000   0.00000   0.00000   0.00000
 249        2PX         0.00000   0.00000   0.00000   0.00000   0.00001
 250        2PY         0.00000   0.00000   0.00000   0.00000   0.00000
 251        2PZ        -0.01476  -0.04084   0.05895  -0.03533   0.19748
 252        3S          0.00000   0.00000   0.00000   0.00000   0.00000
 253        3PX         0.00000   0.00000   0.00000   0.00000   0.00002
 254        3PY         0.00000   0.00000   0.00000   0.00000  -0.00001
 255        3PZ        -0.02548  -0.06632   0.09673  -0.05975   0.33814
 256 34  H  1S          0.00000   0.00000   0.00000   0.00000   0.00000
 257        2S          0.00000   0.00000   0.00000   0.00000   0.00000
 258 35  C  1S          0.00000   0.00000   0.00000   0.00000   0.00000
 259        2S          0.00000   0.00000   0.00000   0.00000   0.00000
 260        2PX         0.00000   0.00001  -0.00001   0.00000   0.00000
 261        2PY         0.00000   0.00000   0.00000   0.00000   0.00000
 262        2PZ         0.09321   0.12648  -0.16331   0.05748  -0.01151
 263        3S          0.00000   0.00000   0.00000   0.00000   0.00000
 264        3PX         0.00001   0.00001  -0.00001   0.00000   0.00000
 265        3PY         0.00000   0.00000   0.00001   0.00000   0.00000
 266        3PZ         0.13384   0.19821  -0.25760   0.09422  -0.01985
 267 36  H  1S          0.00000   0.00000   0.00000   0.00000   0.00000
 268        2S          0.00000   0.00000   0.00000   0.00000   0.00000
 269 37  H  1S          0.00000   0.00000   0.00000   0.00000   0.00000
 270        2S          0.00000   0.00000   0.00000   0.00000   0.00000
 271 38  H  1S          0.00000   0.00000   0.00000   0.00000   0.00000
 272        2S          0.00000   0.00000   0.00000   0.00000   0.00000
 273 39  C  1S          0.00000   0.00000   0.00000   0.00000   0.00000
 274        2S          0.00000   0.00000   0.00000   0.00000   0.00000
 275        2PX         0.00001  -0.00001  -0.00001  -0.00002   0.00000
 276        2PY         0.00000   0.00000   0.00000   0.00000   0.00000
 277        2PZ        -0.04165   0.09041   0.04783   0.18235  -0.00507
 278        3S         -0.00002   0.00001   0.00001   0.00004   0.00000
 279        3PX         0.00002  -0.00002  -0.00002  -0.00005   0.00000
 280        3PY         0.00000   0.00000   0.00000   0.00001   0.00000
 281        3PZ        -0.06388   0.13500   0.07371   0.28434  -0.00805
 282 40  C  1S          0.00000   0.00000   0.00000   0.00000   0.00000
 283        2S          0.00000   0.00000   0.00000   0.00000   0.00000
 284        2PX        -0.00001   0.00001   0.00000   0.00001   0.00000
 285        2PY         0.00000   0.00000   0.00000   0.00000   0.00000
 286        2PZ         0.07983  -0.07620  -0.03856  -0.11276   0.00229
 287        3S          0.00000   0.00000   0.00000   0.00000   0.00000
 288        3PX        -0.00001   0.00001   0.00001   0.00002   0.00000
 289        3PY         0.00000   0.00000   0.00000   0.00000   0.00000
 290        3PZ         0.10947  -0.11372  -0.05849  -0.17900   0.00383
 291 41  C  1S          0.00000   0.00000   0.00000   0.00000   0.00000
 292        2S          0.00000   0.00000   0.00000   0.00000   0.00000
 293        2PX        -0.00001   0.00001   0.00000   0.00001   0.00000
 294        2PY         0.00000   0.00000   0.00000   0.00000   0.00000
 295        2PZ         0.08012  -0.07654  -0.03888  -0.11378   0.00251
 296        3S          0.00000   0.00000   0.00000   0.00000   0.00000
 297        3PX        -0.00001   0.00001   0.00001   0.00002   0.00000
 298        3PY         0.00000   0.00000   0.00000   0.00000   0.00000
 299        3PZ         0.11019  -0.11434  -0.05911  -0.18090   0.00422
 300 42  C  1S          0.00000   0.00000   0.00000   0.00000   0.00000
 301        2S          0.00000   0.00000   0.00000   0.00000   0.00000
 302        2PX         0.00000   0.00000   0.00000   0.00000   0.00000
 303        2PY         0.00000   0.00000   0.00000   0.00000   0.00000
 304        2PZ         0.01484  -0.03505  -0.01894  -0.07715   0.00243
 305        3S          0.00000   0.00000   0.00000   0.00000   0.00000
 306        3PX         0.00000   0.00000   0.00000   0.00001   0.00000
 307        3PY         0.00000   0.00000   0.00000   0.00000   0.00000
 308        3PZ         0.02710  -0.05945  -0.03190  -0.12977   0.00411
 309 43  H  1S          0.00000   0.00000   0.00000   0.00000   0.00000
 310        2S          0.00000   0.00000   0.00000   0.00000   0.00000
 311 44  C  1S          0.00000   0.00000   0.00000   0.00000   0.00000
 312        2S          0.00000   0.00000   0.00000   0.00000   0.00000
 313        2PX         0.00000   0.00000   0.00000   0.00000   0.00000
 314        2PY         0.00000   0.00000   0.00000   0.00000   0.00000
 315        2PZ         0.01390  -0.03438  -0.01840  -0.07558   0.00220
 316        3S          0.00000   0.00000   0.00000   0.00000   0.00000
 317        3PX         0.00000   0.00000   0.00000   0.00001   0.00000
 318        3PY         0.00000   0.00000   0.00000   0.00000   0.00000
 319        3PZ         0.02575  -0.05850  -0.03108  -0.12738   0.00371
 320 45  H  1S          0.00000   0.00000   0.00000   0.00000   0.00000
 321        2S          0.00000   0.00000   0.00000   0.00000   0.00000
 322 46  C  1S          0.00000   0.00000   0.00000   0.00000   0.00000
 323        2S          0.00000   0.00000   0.00000   0.00000   0.00000
 324        2PX         0.00001  -0.00001   0.00000  -0.00001   0.00000
 325        2PY         0.00000   0.00000   0.00000   0.00000   0.00000
 326        2PZ        -0.09076   0.10450   0.05411   0.18221  -0.00469
 327        3S          0.00000   0.00000   0.00000   0.00000   0.00000
 328        3PX         0.00001  -0.00001  -0.00001  -0.00002   0.00000
 329        3PY         0.00000   0.00000   0.00000   0.00000   0.00000
 330        3PZ        -0.13075   0.16431   0.08551   0.29850  -0.00795
 331 47  H  1S          0.00000   0.00000   0.00000   0.00000   0.00000
 332        2S          0.00000   0.00000   0.00000   0.00000   0.00000
 333 48  H  1S          0.00000   0.00000   0.00000   0.00000   0.00000
 334        2S          0.00000   0.00000   0.00000   0.00000   0.00000
 335 49  H  1S          0.00000   0.00000   0.00000   0.00000   0.00000
 336        2S          0.00000   0.00000   0.00000   0.00000   0.00000
[...]
  27        3PZ         0.56635
  28 4   C  1S          1.98670
  29        2S          0.40186
  30        2PX         0.60753
  31        2PY         0.61168
  32        2PZ         0.49469
  33        3S          0.89558
  34        3PX         0.24144
  35        3PY         0.31861
  36        3PZ         0.56635
  37 5   C  1S          1.98674
  38        2S          0.40880
  39        2PX         0.62154
  40        2PY         0.59194
  41        2PZ         0.49315
  42        3S          0.73331
  43        3PX         0.25874
  44        3PY         0.09090
  45        3PZ         0.57489
  46 6   C  1S          1.98661
  47        2S          0.41019
  48        2PX         0.61441
  49        2PY         0.55292
  50        2PZ         0.51066
  51        3S          0.75872
  52        3PX         0.19688
  53        3PY         0.06947
  54        3PZ         0.56669
  55 7   O  1S          1.98645
  56        2S          0.42199
  57        2PX         0.75244
  58        2PY         0.60725
  59        2PZ         0.78031
  60        3S          1.59050
  61        3PX         0.85373
  62        3PY         0.69052
  63        3PZ         0.89251
  64 8   N  1S          1.99061
  65        2S          0.38678
  66        2PX         0.70165
  67        2PY         0.59589
  68        2PZ         0.52507
  69        3S          1.56648
  70        3PX         0.67806
  71        3PY         0.53250
  72        3PZ         0.64149
  73 9   C  1S          1.98491
  74        2S          0.43445
  75        2PX         0.55407
  76        2PY         0.60606
  77        2PZ         0.48511
  78        3S          0.56628
  79        3PX         0.04396
  80        3PY         0.17024
  81        3PZ         0.53807
  82 10  O  1S          1.98645
  83        2S          0.42199
  84        2PX         0.75244
  85        2PY         0.60725
  86        2PZ         0.78031
  87        3S          1.59051
  88        3PX         0.85373
  89        3PY         0.69052
  90        3PZ         0.89251
  91 11  N  1S          1.99061
  92        2S          0.38678
  93        2PX         0.70166
  94        2PY         0.59589
  95        2PZ         0.52507
  96        3S          1.56648
  97        3PX         0.67806
  98        3PY         0.53250
  99        3PZ         0.64149
 100 12  C  1S          1.98491
 101        2S          0.43445
 102        2PX         0.55407
 103        2PY         0.60606
 104        2PZ         0.48511
 105        3S          0.56628
 106        3PX         0.04396
 107        3PY         0.17024
 108        3PZ         0.53807
 109 13  C  1S          1.98474
 110        2S          0.43116
 111        2PX         0.67851
 112        2PY         0.50233
 113        2PZ         0.49519
 114        3S          0.60636
 115        3PX         0.26690
 116        3PY         0.49814
 117        3PZ         0.51508
 118 14  C  1S          1.98498
 119        2S          0.43480
 120        2PX         0.68620
 121        2PY         0.49074
 122        2PZ         0.48298
 123        3S          0.57755
 124        3PX         0.30496
 125        3PY         0.50335
 126        3PZ         0.50793
 127 15  C  1S          1.98474
 128        2S          0.43115
 129        2PX         0.67850
 130        2PY         0.50232
 131        2PZ         0.49518
 132        3S          0.60636
 133        3PX         0.26689
 134        3PY         0.49815
 135        3PZ         0.51508
 136 16  C  1S          1.98498
 137        2S          0.43480
 138        2PX         0.68619
 139        2PY         0.49074
 140        2PZ         0.48297
 141        3S          0.57756
 142        3PX         0.30495
 143        3PY         0.50336
 144        3PZ         0.50794
 145 17  C  1S          1.98676
 146        2S          0.40495
 147        2PX         0.64051
 148        2PY         0.59505
 149        2PZ         0.46977
 150        3S          0.86737
 151        3PX         0.30086
 152        3PY         0.26444
 153        3PZ         0.56278
 154 18  C  1S          1.98656
 155        2S          0.40460
 156        2PX         0.61185
 157        2PY         0.62814
 158        2PZ         0.43825
 159        3S          0.92696
 160        3PX         0.33553
 161        3PY         0.31093
 162        3PZ         0.53898
 163 19  C  1S          1.98659
 164        2S          0.40515
 165        2PX         0.61254
 166        2PY         0.62990
 167        2PZ         0.43509
 168        3S          0.92715
 169        3PX         0.41031
 170        3PY         0.23389
 171        3PZ         0.52943
 172 20  C  1S          1.98632
 173        2S          0.40491
 174        2PX         0.60924
 175        2PY         0.62784
 176        2PZ         0.44334
 177        3S          0.89900
 178        3PX         0.39599
 179        3PY         0.25789
 180        3PZ         0.55449
 181 21  H  1S          0.47561
 182        2S          0.31491
 183 22  C  1S          1.98633
 184        2S          0.40493
 185        2PX         0.61719
 186        2PY         0.62049
 187        2PZ         0.44283
 188        3S          0.90027
 189        3PX         0.33406
 190        3PY         0.31994
 191        3PZ         0.55448
 192 23  H  1S          0.47388
 193        2S          0.30730
 194 24  C  1S          1.98637
 195        2S          0.40557
 196        2PX         0.63004
 197        2PY         0.60898
 198        2PZ         0.43541
 199        3S          0.90882
 200        3PX         0.25547
 201        3PY         0.40247
 202        3PZ         0.54562
 203 25  H  1S          0.47803
 204        2S          0.32794
 205 26  H  1S          0.47791
 206        2S          0.32720
 207 27  H  1S          0.47811
 208        2S          0.32757
 209 28  C  1S          1.98676
 210        2S          0.40495
 211        2PX         0.64051
 212        2PY         0.59505
 213        2PZ         0.46977
 214        3S          0.86737
 215        3PX         0.30086
 216        3PY         0.26444
 217        3PZ         0.56278
 218 29  C  1S          1.98659
 219        2S          0.40515
 220        2PX         0.61254
 221        2PY         0.62990
 222        2PZ         0.43509
 223        3S          0.92715
 224        3PX         0.41031
 225        3PY         0.23389
 226        3PZ         0.52943
 227 30  C  1S          1.98656
 228        2S          0.40460
 229        2PX         0.61185
 230        2PY         0.62813
 231        2PZ         0.43825
 232        3S          0.92696
 233        3PX         0.33553
 234        3PY         0.31093
 235        3PZ         0.53898
 236 31  C  1S          1.98633
 237        2S          0.40493
 238        2PX         0.61719
 239        2PY         0.62049
 240        2PZ         0.44283
 241        3S          0.90027
 242        3PX         0.33406
 243        3PY         0.31994
 244        3PZ         0.55448
 245 32  H  1S          0.47388
 246        2S          0.30730
 247 33  C  1S          1.98632
 248        2S          0.40491
 249        2PX         0.60924
 250        2PY         0.62784
 251        2PZ         0.44334
 252        3S          0.89900
 253        3PX         0.39599
 254        3PY         0.25789
 255        3PZ         0.55449
 256 34  H  1S          0.47561
 257        2S          0.31491
 258 35  C  1S          1.98637
 259        2S          0.40557
 260        2PX         0.63004
 261        2PY         0.60898
 262        2PZ         0.43541
 263        3S          0.90882
 264        3PX         0.25547
 265        3PY         0.40247
 266        3PZ         0.54562
 267 36  H  1S          0.47791
 268        2S          0.32720
 269 37  H  1S          0.47803
 270        2S          0.32794
 271 38  H  1S          0.47811
 272        2S          0.32757
 273 39  C  1S          1.98653
 274        2S          0.40538
 275        2PX         0.59343
 276        2PY         0.63587
 277        2PZ         0.46876
 278        3S          0.84894
 279        3PX         0.26300
 280        3PY         0.30125
 281        3PZ         0.55352
 282 40  C  1S          1.98665
 283        2S          0.40500
 284        2PX         0.62707
 285        2PY         0.60596
 286        2PZ         0.44049
 287        3S          0.92671
 288        3PX         0.28812
 289        3PY         0.33672
 290        3PZ         0.54326
 291 41  C  1S          1.98663
 292        2S          0.40487
 293        2PX         0.62812
 294        2PY         0.60384
 295        2PZ         0.44191
 296        3S          0.92538
 297        3PX         0.24519
 298        3PY         0.37909
 299        3PZ         0.54619
 300 42  C  1S          1.98633
 301        2S          0.40505
 302        2PX         0.62749
 303        2PY         0.60998
 304        2PZ         0.44289
 305        3S          0.89652
 306        3PX         0.26752
 307        3PY         0.38853
 308        3PZ         0.55487
 309 43  H  1S          0.47684
 310        2S          0.32332
 311 44  C  1S          1.98633
 312        2S          0.40500
 313        2PX         0.62156
 314        2PY         0.61562
 315        2PZ         0.44325
 316        3S          0.89602
 317        3PX         0.30623
 318        3PY         0.34944
 319        3PZ         0.55524
 320 45  H  1S          0.47758
 321        2S          0.32973
 322 46  C  1S          1.98635
 323        2S          0.40502
 324        2PX         0.60713
 325        2PY         0.62965
 326        2PZ         0.43911
 327        3S          0.90766
 328        3PX         0.40612
 329        3PY         0.25109
 330        3PZ         0.54989
 331 47  H  1S          0.47801
 332        2S          0.32917
 333 48  H  1S          0.47809
 334        2S          0.33000
 335 49  H  1S          0.47820
 336        2S          0.32999
 337 50  C  1S          1.98653
 338        2S          0.40538
 339        2PX         0.59343
 340        2PY         0.63587
 341        2PZ         0.46876
 342        3S          0.84894
 343        3PX         0.26300
 344        3PY         0.30125
 345        3PZ         0.55352
 346 51  C  1S          1.98663
 347        2S          0.40487
 348        2PX         0.62812
 349        2PY         0.60384
 350        2PZ         0.44191
 351        3S          0.92538
 352        3PX         0.24519
 353        3PY         0.37909
 354        3PZ         0.54619
 355 52  C  1S          1.98665
 356        2S          0.40500
 357        2PX         0.62707
 358        2PY         0.60596
 359        2PZ         0.44049
 360        3S          0.92672
 361        3PX         0.28812
 362        3PY         0.33671
 363        3PZ         0.54325
 364 53  C  1S          1.98633
 365        2S          0.40500
 366        2PX         0.62156
 367        2PY         0.61562
 368        2PZ         0.44325
 369        3S          0.89602
 370        3PX         0.30623
 371        3PY         0.34944
 372        3PZ         0.55524
 373 54  H  1S          0.47758
 374        2S          0.32973
 375 55  C  1S          1.98633
 376        2S          0.40505
 377        2PX         0.62749
 378        2PY         0.60999
 379        2PZ         0.44289
 380        3S          0.89652
 381        3PX         0.26752
 382        3PY         0.38853
 383        3PZ         0.55487
 384 56  H  1S          0.47684
 385        2S          0.32332
 386 57  C  1S          1.98635
 387        2S          0.40502
 388        2PX         0.60713
 389        2PY         0.62965
 390        2PZ         0.43911
 391        3S          0.90766
 392        3PX         0.40612
 393        3PY         0.25109
 394        3PZ         0.54989
 395 58  H  1S          0.47809
 396        2S          0.33000
 397 59  H  1S          0.47801
 398        2S          0.32917
 399 60  H  1S          0.47820
 400        2S          0.32999
          Condensed to atoms (all electrons):
 Mulliken atomic charges:
              1
     1  C    0.333455
     2  C    0.240009
     3  C   -0.124421
     4  C   -0.124430
     5  C    0.240009
     6  C    0.333454
     7  O   -0.575699
     8  N   -0.618529
     9  C    0.616830
    10  O   -0.575699
    11  N   -0.618530
    12  C    0.616830
    13  C    0.021600
    14  C    0.026509
    15  C    0.021607
    16  C    0.026513
    17  C   -0.092474
    18  C   -0.181802
    19  C   -0.170048
    20  C   -0.179027
    21  H    0.209483
    22  C   -0.180520
    23  H    0.218826
    24  C   -0.178744
    25  H    0.194023
    26  H    0.194891
    27  H    0.194319
    28  C   -0.092475
    29  C   -0.170048
    30  C   -0.181802
    31  C   -0.180521
    32  H    0.218826
    33  C   -0.179027
    34  H    0.209483
    35  C   -0.178743
    36  H    0.194891
    37  H    0.194023
    38  H    0.194319
    39  C   -0.056685
    40  C   -0.159964
    41  C   -0.161220
    42  C   -0.179180
    43  H    0.199844
    44  C   -0.178692
    45  H    0.192690
    46  C   -0.182013
    47  H    0.192821
    48  H    0.191911
    49  H    0.191812
    50  C   -0.056693
    51  C   -0.161221
    52  C   -0.159963
    53  C   -0.178691
    54  H    0.192690
    55  C   -0.179180
    56  H    0.199845
    57  C   -0.182014
    58  H    0.191911
    59  H    0.192821
    60  H    0.191813
 Sum of Mulliken atomic charges =   0.00000
 Mulliken charges with hydrogens summed into heavy atoms:
              1
     1  C    0.333455
     2  C    0.240009
     3  C   -0.124421
     4  C   -0.124430
     5  C    0.240009
     6  C    0.333454
     7  O   -0.575699
     8  N   -0.618529
     9  C    0.616830
    10  O   -0.575699
    11  N   -0.618530
    12  C    0.616830
    13  C    0.021600
    14  C    0.026509
    15  C    0.021607
    16  C    0.026513
    17  C   -0.092474
    18  C    0.027680
    19  C    0.048778
    20  C    0.014996
    22  C    0.014371
    24  C    0.015575
    28  C   -0.092475
    29  C    0.048778
    30  C    0.027680
    31  C    0.014371
    33  C    0.014996
    35  C    0.015575
    39  C   -0.056685
    40  C    0.039880
    41  C    0.031469
    42  C    0.013640
    44  C    0.013219
    46  C    0.009799
    50  C   -0.056693
    51  C    0.031469
    52  C    0.039882
    53  C    0.013220
    55  C    0.013641
    57  C    0.009799
 Sum of Mulliken charges with hydrogens summed into heavy atoms =   0.00000
 Electronic spatial extent (au):  <R**2>=          29801.8539
 Charge=              0.0000 electrons
 Dipole moment (field-independent basis, Debye):
    X=              0.0000    Y=              0.0000    Z=              0.0002  Tot=              0.0002
 Quadrupole moment (field-independent basis, Debye-Ang):
   XX=           -176.9615   YY=           -175.7231   ZZ=           -242.4089
   XY=              5.6697   XZ=             -0.0005   YZ=              0.0002
 Traceless Quadrupole moment (field-independent basis, Debye-Ang):
   XX=             21.4030   YY=             22.6414   ZZ=            -44.0444
   XY=              5.6697   XZ=             -0.0005   YZ=              0.0002
 Octapole moment (field-independent basis, Debye-Ang**2):
  XXX=             -0.0032  YYY=              0.0006  ZZZ=             -0.0014  XYY=              0.0004
  XXY=              0.0005  XXZ=              0.0224  XZZ=              0.0003  YZZ=              0.0000
  YYZ=             -0.0008  XYZ=             -0.0034
 Hexadecapole moment (field-independent basis, Debye-Ang**3):
 XXXX=         -18941.0008 YYYY=         -14615.5277 ZZZZ=           -244.5496 XXXY=           -210.6606
 XXXZ=              0.0292 YYYX=            263.4683 YYYZ=              0.0401 ZZZX=             -0.0008
 ZZZY=              0.0003 XXYY=          -6025.6771 XXZZ=          -4435.2274 YYZZ=          -3388.3693
 XXYZ=             -0.0157 YYXZ=             -0.0253 ZZXY=             14.3589
 N-N= 3.673132195533D+03 E-N=-1.113761877662D+04  KE= 1.620916876297D+03
 Orbital energies and kinetic energies (alpha):
                                 1                 2
 129         O                -0.261930          1.118851
 130         O                -0.261929          1.118808
 131         O                -0.238331          1.231790
 132         O                -0.226808          1.387170
 133         O                -0.201671          1.388292
 134         V                -0.086065          1.427733
 135         V                -0.044239          1.572747
 136         V                -0.041142          1.627052
 137         V                -0.023671          1.426843
 138         V                -0.006431          1.377373
 Total kinetic energy from orbitals= 1.620916876297D+03
 1\1\GINC-GCN-15-42\SP\RB3LYP\3-21G\C36H20N2O2\ATOMLINS\12-Jun-2012\0\\
 # b3lyp/3-21g geom=connectivity pop=regular\\4a_TON_3J_4a_3_21G_pop_DF
 T\\0,1\C,0,0.8469,1.04114,-0.000054\C,0,-0.542235,1.274194,-0.000057\C
 ,0,1.477653,-0.20954,-0.000048\C,0,-1.477643,0.209551,-0.000058\C,0,0.
 542244,-1.274185,-0.00005\C,0,-0.846891,-1.04113,-0.000054\O,0,1.46060
 5,2.264131,-0.000057\N,0,-0.76445,2.640199,-0.000051\C,0,0.423445,3.17
 295,-0.000083\O,0,-1.460596,-2.264122,-0.000052\N,0,0.764459,-2.64019,
 -0.000059\C,0,-0.423435,-3.172941,-0.000028\C,0,2.877703,-0.388808,-0.
 00005\C,0,4.084976,-0.539506,-0.000089\C,0,-2.877694,0.38882,-0.00006\
 C,0,-4.084992,0.539476,-0.000031\C,0,0.768168,4.588939,-0.000073\C,0,2
 .107567,5.010422,-0.000121\C,0,-0.262329,5.544425,-0.000007\C,0,2.4080
 41,6.370582,-0.000109\H,0,2.902076,4.271839,-0.000169\C,0,0.047394,6.9
 00551,0.000005\H,0,-1.292566,5.204265,0.000032\C,0,1.381864,7.317922,-
 0.000046\H,0,3.445973,6.691589,-0.000148\H,0,-0.75295,7.635272,0.00005
 3\H,0,1.620332,8.378032,-0.000037\C,0,-0.768159,-4.58893,-0.00004\C,0,
 0.262338,-5.544417,-0.000109\C,0,-2.107558,-5.010413,0.000009\C,0,-0.0
 47385,-6.900543,-0.000123\H,0,1.292575,-5.204257,-0.000148\C,0,-2.4080
 32,-6.370573,-0.000006\H,0,-2.902068,-4.27183,0.00006\C,0,-1.381856,-7
 .317913,-0.000071\H,0,0.752958,-7.635264,-0.000174\H,0,-3.445965,-6.69
 1579,0.000034\H,0,-1.620324,-8.378024,-0.000082\C,0,5.49429,-0.733984,
 0.000023\C,0,6.033633,-2.036857,0.000078\C,0,6.372817,0.368584,0.00007
 7\C,0,7.412447,-2.225647,0.000184\H,0,5.35808,-2.886534,0.000035\C,0,7
 .75021,0.168894,0.000183\H,0,5.960452,1.372824,0.000035\C,0,8.275053,-
 1.12617,0.000237\H,0,7.816405,-3.234419,0.000225\H,0,8.417534,1.026543
 ,0.000224\H,0,9.350984,-1.277725,0.00032\C,0,-5.494306,0.73396,0.00004
 3\C,0,-6.372841,-0.368604,0.000082\C,0,-6.033642,2.036834,0.000077\C,0
 ,-7.750234,-0.168902,0.000152\H,0,-5.960483,-1.372846,0.000056\C,0,-7.
 412455,2.225634,0.000147\H,0,-5.358085,2.886507,0.000046\C,0,-8.275069
 ,1.126165,0.000185\H,0,-8.417566,-1.026545,0.000182\H,0,-7.816405,3.23
 4409,0.000172\H,0,-9.350998,1.27773,0.00024\\Version=EM64L-G09RevC.01\
 State=1-A\HF=-1634.68447\RMSD=3.613e-09\Dipole=-0.0000006,0.0000043,0.
 0000767\Quadrupole=15.912634,16.8333309,-32.7459649,4.215266,-0.000406
 8,0.0001324\PG=C01 [X(C36H20N2O2)]\\@


 EXPERIENCE IS A WONDERFUL THING.  IT ENABLES
 YOU TO RECOGNIZE A MISTAKE WHEN YOU MAKE IT AGAIN.
           - BACK OF A SUGAR PACKET
 Job cpu time:  0 days  0 hours  4 minutes 19.4 seconds.
 File lengths (MBytes):  RWF=     94 Int=      0 D2E=      0 Chk=      7 Scr=      1
 Normal termination of Gaussian 09 at Tue Jun 12 08:40:19 2012.
