 Entering Gaussian System, Link 0=/home/diag/opt/gaussian/g09/g09
 Initial command:
 /home/diag/opt/gaussian/g09/l1.exe /state/partition1/ccollins/520211.trestles-fe1.sdsc.edu/Gau-32699.inp -scrdir=/state/partition1/ccollins/520211.trestles-fe1.sdsc.edu/
 Entering Link 1 = /home/diag/opt/gaussian/g09/l1.exe PID=     32700.
  
 Copyright (c) 1988,1990,1992,1993,1995,1998,2003,2009,2011,
            Gaussian, Inc.  All Rights Reserved.
  
 This is part of the Gaussian(R) 09 program.  It is based on
 the Gaussian(R) 03 system (copyright 2003, Gaussian, Inc.),
 the Gaussian(R) 98 system (copyright 1998, Gaussian, Inc.),
 the Gaussian(R) 94 system (copyright 1995, Gaussian, Inc.),
 the Gaussian 92(TM) system (copyright 1992, Gaussian, Inc.),
 the Gaussian 90(TM) system (copyright 1990, Gaussian, Inc.),
 the Gaussian 88(TM) system (copyright 1988, Gaussian, Inc.),
 the Gaussian 86(TM) system (copyright 1986, Carnegie Mellon
 University), and the Gaussian 82(TM) system (copyright 1983,
 Carnegie Mellon University). Gaussian is a federally registered
 trademark of Gaussian, Inc.
  
 This software contains proprietary and confidential information,
 including trade secrets, belonging to Gaussian, Inc.
  
 This software is provided under written license and may be
 used, copied, transmitted, or stored only in accord with that
 written license.
  
 The following legend is applicable only to US Government
 contracts under FAR:
  
                    RESTRICTED RIGHTS LEGEND
  
 Use, reproduction and disclosure by the US Government is
 subject to restrictions as set forth in subparagraphs (a)
 and (c) of the Commercial Computer Software - Restricted
 Rights clause in FAR 52.227-19.
  
 Gaussian, Inc.
 340 Quinnipiac St., Bldg. 40, Wallingford CT 06492
  
  
 ---------------------------------------------------------------
 Warning -- This program may not be used in any manner that
 competes with the business of Gaussian, Inc. or will provide
 assistance to any competitor of Gaussian, Inc.  The licensee
 of this program is prohibited from giving any competitor of
 Gaussian, Inc. access to this program.  By using this program,
 the user acknowledges that Gaussian, Inc. is engaged in the
 business of creating and licensing software in the field of
 computational chemistry and represents and warrants to the
 licensee that it is not a competitor of Gaussian, Inc. and that
 it will not use this program in any manner prohibited above.
 ---------------------------------------------------------------
  

 Cite this work as:
 Gaussian 09, Revision C.01,
 M. J. Frisch, G. W. Trucks, H. B. Schlegel, G. E. Scuseria, 
 M. A. Robb, J. R. Cheeseman, G. Scalmani, V. Barone, B. Mennucci, 
 G. A. Petersson, H. Nakatsuji, M. Caricato, X. Li, H. P. Hratchian, 
 A. F. Izmaylov, J. Bloino, G. Zheng, J. L. Sonnenberg, M. Hada, 
 M. Ehara, K. Toyota, R. Fukuda, J. Hasegawa, M. Ishida, T. Nakajima, 
 Y. Honda, O. Kitao, H. Nakai, T. Vreven, J. A. Montgomery, Jr., 
 J. E. Peralta, F. Ogliaro, M. Bearpark, J. J. Heyd, E. Brothers, 
 K. N. Kudin, V. N. Staroverov, T. Keith, R. Kobayashi, J. Normand, 
 K. Raghavachari, A. Rendell, J. C. Burant, S. S. Iyengar, J. Tomasi, 
 M. Cossi, N. Rega, J. M. Millam, M. Klene, J. E. Knox, J. B. Cross, 
 V. Bakken, C. Adamo, J. Jaramillo, R. Gomperts, R. E. Stratmann, 
 O. Yazyev, A. J. Austin, R. Cammi, C. Pomelli, J. W. Ochterski, 
 R. L. Martin, K. Morokuma, V. G. Zakrzewski, G. A. Voth, 
 P. Salvador, J. J. Dannenberg, S. Dapprich, A. D. Daniels, 
 O. Farkas, J. B. Foresman, J. V. Ortiz, J. Cioslowski, 
 and D. J. Fox, Gaussian, Inc., Wallingford CT, 2010.
 
 ******************************************
 Gaussian 09:  AM64L-G09RevC.01 23-Sep-2011
                28-Feb-2012 
 ******************************************
 %mem=59GB
 %chk=24a_TON_2J_24a_DFT.chk
 --------------------------------------
 # opt b3lyp/6-31g(d) geom=connectivity
 --------------------------------------
 1/14=-1,18=20,19=15,26=3,38=1,57=2/1,3;
 2/9=110,12=2,17=6,18=5,40=1/2;
 3/5=1,6=6,7=1,11=2,16=1,25=1,30=1,71=1,74=-5/1,2,3;
 4//1;
 5/5=2,38=5/2;
 6/7=2,8=2,9=2,10=2,28=1/1;
 7//1,2,3,16;
 1/14=-1,18=20,19=15/3(2);
 2/9=110/2;
 99//99;
 2/9=110/2;
 3/5=1,6=6,7=1,11=2,16=1,25=1,30=1,71=1,74=-5/1,2,3;
 4/5=5,16=3/1;
 5/5=2,38=5/2;
 7//1,2,3,16;
 1/14=-1,18=20,19=15/3(-5);
 2/9=110/2;
 6/7=2,8=2,9=2,10=2,19=2,28=1/1;
 99/9=1/99;
 ------------------
 24a_TON_2J_24a_DFT
 ------------------
 Charge =  0 Multiplicity = 1
 Symbolic Z-Matrix:
 C                     0.        0.        0. 
 C                     1.411     0.        0. 
 C                    -0.8245    1.1316    0. 
 C                     2.1866    1.1877    0.0001 
 C                    -0.0488    2.3193    0. 
 C                     1.3622    2.3193    0.0001 
 O                    -0.3972   -1.3145   -0.0001 
 N                     1.8591   -1.3092   -0.0001 
 C                     0.7787   -2.0391   -0.0002 
 O                     1.7594    3.6338    0.0001 
 N                    -0.4969    3.6285   -0.0001 
 C                     0.5834    4.3584   -0.0002 
 C                     0.59449  -3.96029   0. 
 H                    -0.43979  -4.29372   0. 
 C                     1.59845  -4.86772   0. 
 H                     2.62456  -4.5096    0.0015 
 C                     0.12531  -7.36854   0. 
 C                     0.04156  -8.77435   0. 
 C                     1.41038  -6.78853   0. 
 C                     1.1854   -9.56948  -0.0006 
 H                    -0.94022  -9.24259   0.0002 
 C                     2.55262  -7.58187  -0.0006 
 C                     2.44869  -8.97675  -0.001 
 H                     3.53227  -7.11079  -0.0005 
 H                     1.01239  -11.53186  -0.0008 
 H                    -1.14702  -6.57407   0. 
 H                     3.68474  -9.82657   0. 
 C                     0.76765   6.27959   0. 
 H                     1.80194   6.61299   0. 
 C                    -0.23628   7.18704   0. 
 H                    -1.2624    6.82894   0.0015 
 C                     1.23691   9.68782   0. 
 C                     1.32069   11.09363   0. 
 C                    -0.04817   9.10785   0. 
 C                     0.17687   11.88879  -0.0006 
 H                     2.30248   11.56185   0.0002 
 C                    -1.1904    9.90121  -0.0006 
 C                    -1.08643   11.29609  -0.001 
 H                    -2.17006   9.43016  -0.0005 
 H                     0.34992   13.85117  -0.0008 
 H                     2.50922   8.89333   0. 
 H                    -2.32246   12.14593   0. 
 C                    -2.75296   1.2087    0. 
 H                    -3.14338   2.22285   0. 
 C                    -3.60316   0.15585   0. 
 H                    -3.18855  -0.84877   0.0015 
 C                    -6.31869  -0.9397    0. 
 C                    -5.57142   0.2385    0. 
 C                    -6.21779   1.47442   0. 
 C                    -7.61202   1.53251  -0.0012 
 C                    -8.35899   0.35458  -0.0017 
 C                    -7.71234  -0.88163  -0.0007 
 H                    -5.80897  -1.91405   0.0005 
 H                    -5.62887   2.40314   0.0006 
 H                    -8.12135   2.50708  -0.0013 
 H                    -9.45781   0.40009  -0.0026 
 H                    -8.30145  -1.81011  -0.0009 
 C                     4.11506   1.1107    0. 
 H                     4.50554   0.09658   0. 
 C                     4.96521   2.1636    0. 
 H                     4.55054   3.16819   0.0015 
 C                     7.68067   3.2593    0. 
 C                     6.93347   2.08106   0. 
 C                     7.57991   0.84517   0. 
 C                     8.97414   0.78716  -0.0012 
 C                     9.72105   1.96512  -0.0017 
 C                     9.07433   3.20131  -0.0007 
 H                     7.1709    4.23362   0.0005 
 H                     6.99104  -0.08358   0.0006 
 H                     9.48353  -0.18738  -0.0013 
 H                     10.81987   1.91968  -0.0026 
 H                     9.66339   4.12981  -0.0009 
 

 GradGradGradGradGradGradGradGradGradGradGradGradGradGradGradGradGradGrad
 Berny optimization.
 Initialization pass.
                           ----------------------------
                           !    Initial Parameters    !
                           ! (Angstroms and Degrees)  !
 --------------------------                            --------------------------
 ! Name  Definition              Value          Derivative Info.                !
 --------------------------------------------------------------------------------
 ! R1    R(1,2)                  1.411          estimate D2E/DX2                !
 ! R2    R(1,3)                  1.4001         estimate D2E/DX2                !
 ! R3    R(1,7)                  1.3732         estimate D2E/DX2                !
 ! R4    R(2,4)                  1.4185         estimate D2E/DX2                !
 ! R5    R(2,8)                  1.3838         estimate D2E/DX2                !
 ! R6    R(3,5)                  1.4186         estimate D2E/DX2                !
 ! R7    R(3,43)                 1.93           estimate D2E/DX2                !
 ! R8    R(4,6)                  1.4001         estimate D2E/DX2                !
 ! R9    R(4,58)                 1.93           estimate D2E/DX2                !
 ! R10   R(5,6)                  1.411          estimate D2E/DX2                !
 ! R11   R(5,11)                 1.3838         estimate D2E/DX2                !
 ! R12   R(6,10)                 1.3732         estimate D2E/DX2                !
 ! R13   R(7,9)                  1.3812         estimate D2E/DX2                !
 ! R14   R(8,9)                  1.3038         estimate D2E/DX2                !
 ! R15   R(9,13)                 1.93           estimate D2E/DX2                !
 ! R16   R(10,12)                1.3813         estimate D2E/DX2                !
 ! R17   R(11,12)                1.3038         estimate D2E/DX2                !
 ! R18   R(12,28)                1.93           estimate D2E/DX2                !
 ! R19   R(13,14)                1.0867         estimate D2E/DX2                !
 ! R20   R(13,15)                1.3533         estimate D2E/DX2                !
 ! R21   R(15,16)                1.0868         estimate D2E/DX2                !
 ! R22   R(15,19)                1.93           estimate D2E/DX2                !
 ! R23   R(17,18)                1.4083         estimate D2E/DX2                !
 ! R24   R(17,19)                1.4099         estimate D2E/DX2                !
 ! R25   R(17,26)                1.5            estimate D2E/DX2                !
 ! R26   R(18,20)                1.3931         estimate D2E/DX2                !
 ! R27   R(18,21)                1.0877         estimate D2E/DX2                !
 ! R28   R(19,22)                1.3907         estimate D2E/DX2                !
 ! R29   R(20,23)                1.3954         estimate D2E/DX2                !
 ! R30   R(20,25)                1.97           estimate D2E/DX2                !
 ! R31   R(22,23)                1.3988         estimate D2E/DX2                !
 ! R32   R(22,24)                1.087          estimate D2E/DX2                !
 ! R33   R(23,27)                1.5            estimate D2E/DX2                !
 ! R34   R(28,29)                1.0867         estimate D2E/DX2                !
 ! R35   R(28,30)                1.3533         estimate D2E/DX2                !
 ! R36   R(30,31)                1.0868         estimate D2E/DX2                !
 ! R37   R(30,34)                1.93           estimate D2E/DX2                !
 ! R38   R(32,33)                1.4083         estimate D2E/DX2                !
 ! R39   R(32,34)                1.4099         estimate D2E/DX2                !
 ! R40   R(32,41)                1.5            estimate D2E/DX2                !
 ! R41   R(33,35)                1.3931         estimate D2E/DX2                !
 ! R42   R(33,36)                1.0877         estimate D2E/DX2                !
 ! R43   R(34,37)                1.3907         estimate D2E/DX2                !
 ! R44   R(35,38)                1.3954         estimate D2E/DX2                !
 ! R45   R(35,40)                1.97           estimate D2E/DX2                !
 ! R46   R(37,38)                1.3988         estimate D2E/DX2                !
 ! R47   R(37,39)                1.087          estimate D2E/DX2                !
 ! R48   R(38,42)                1.5            estimate D2E/DX2                !
 ! R49   R(43,44)                1.0867         estimate D2E/DX2                !
 ! R50   R(43,45)                1.3533         estimate D2E/DX2                !
 ! R51   R(45,46)                1.0868         estimate D2E/DX2                !
 ! R52   R(45,48)                1.97           estimate D2E/DX2                !
 ! R53   R(47,48)                1.3952         estimate D2E/DX2                !
 ! R54   R(47,52)                1.3949         estimate D2E/DX2                !
 ! R55   R(47,53)                1.0996         estimate D2E/DX2                !
 ! R56   R(48,49)                1.3947         estimate D2E/DX2                !
 ! R57   R(49,50)                1.3954         estimate D2E/DX2                !
 ! R58   R(49,54)                1.0997         estimate D2E/DX2                !
 ! R59   R(50,51)                1.3948         estimate D2E/DX2                !
 ! R60   R(50,55)                1.0996         estimate D2E/DX2                !
 ! R61   R(51,52)                1.3951         estimate D2E/DX2                !
 ! R62   R(51,56)                1.0998         estimate D2E/DX2                !
 ! R63   R(52,57)                1.0996         estimate D2E/DX2                !
 ! R64   R(58,59)                1.0867         estimate D2E/DX2                !
 ! R65   R(58,60)                1.3533         estimate D2E/DX2                !
 ! R66   R(60,61)                1.0868         estimate D2E/DX2                !
 ! R67   R(60,63)                1.97           estimate D2E/DX2                !
 ! R68   R(62,63)                1.3952         estimate D2E/DX2                !
 ! R69   R(62,67)                1.3949         estimate D2E/DX2                !
 ! R70   R(62,68)                1.0996         estimate D2E/DX2                !
 ! R71   R(63,64)                1.3947         estimate D2E/DX2                !
 ! R72   R(64,65)                1.3954         estimate D2E/DX2                !
 ! R73   R(64,69)                1.0997         estimate D2E/DX2                !
 ! R74   R(65,66)                1.3948         estimate D2E/DX2                !
 ! R75   R(65,70)                1.0996         estimate D2E/DX2                !
 ! R76   R(66,67)                1.3951         estimate D2E/DX2                !
 ! R77   R(66,71)                1.0998         estimate D2E/DX2                !
 ! R78   R(67,72)                1.0996         estimate D2E/DX2                !
 ! A1    A(2,1,3)              126.0776         estimate D2E/DX2                !
 ! A2    A(2,1,7)              106.8131         estimate D2E/DX2                !
 ! A3    A(3,1,7)              127.1092         estimate D2E/DX2                !
 ! A4    A(1,2,4)              123.1456         estimate D2E/DX2                !
 ! A5    A(1,2,8)              108.8945         estimate D2E/DX2                !
 ! A6    A(4,2,8)              127.9598         estimate D2E/DX2                !
 ! A7    A(1,3,5)              110.7734         estimate D2E/DX2                !
 ! A8    A(1,3,43)             128.3672         estimate D2E/DX2                !
 ! A9    A(5,3,43)             120.8594         estimate D2E/DX2                !
 ! A10   A(2,4,6)              110.7801         estimate D2E/DX2                !
 ! A11   A(2,4,58)             120.8591         estimate D2E/DX2                !
 ! A12   A(6,4,58)             128.3608         estimate D2E/DX2                !
 ! A13   A(3,5,6)              123.149          estimate D2E/DX2                !
 ! A14   A(3,5,11)             127.9565         estimate D2E/DX2                !
 ! A15   A(6,5,11)             108.8945         estimate D2E/DX2                !
 ! A16   A(4,6,5)              126.0743         estimate D2E/DX2                !
 ! A17   A(4,6,10)             127.1125         estimate D2E/DX2                !
 ! A18   A(5,6,10)             106.8131         estimate D2E/DX2                !
 ! A19   A(1,7,9)              104.8286         estimate D2E/DX2                !
 ! A20   A(2,8,9)              105.1478         estimate D2E/DX2                !
 ! A21   A(7,9,8)              114.316          estimate D2E/DX2                !
 ! A22   A(7,9,13)             116.1649         estimate D2E/DX2                !
 ! A23   A(8,9,13)             129.5192         estimate D2E/DX2                !
 ! A24   A(6,10,12)            104.8264         estimate D2E/DX2                !
 ! A25   A(5,11,12)            105.1502         estimate D2E/DX2                !
 ! A26   A(10,12,11)           114.3157         estimate D2E/DX2                !
 ! A27   A(10,12,28)           116.1614         estimate D2E/DX2                !
 ! A28   A(11,12,28)           129.5229         estimate D2E/DX2                !
 ! A29   A(9,13,14)            113.3452         estimate D2E/DX2                !
 ! A30   A(9,13,15)            126.6322         estimate D2E/DX2                !
 ! A31   A(14,13,15)           120.0227         estimate D2E/DX2                !
 ! A32   A(13,15,16)           118.6518         estimate D2E/DX2                !
 ! A33   A(13,15,19)           126.5172         estimate D2E/DX2                !
 ! A34   A(16,15,19)           114.831          estimate D2E/DX2                !
 ! A35   A(18,17,19)           117.701          estimate D2E/DX2                !
 ! A36   A(18,17,26)           118.572          estimate D2E/DX2                !
 ! A37   A(19,17,26)           123.727          estimate D2E/DX2                !
 ! A38   A(17,18,20)           121.3955         estimate D2E/DX2                !
 ! A39   A(17,18,21)           118.9072         estimate D2E/DX2                !
 ! A40   A(20,18,21)           119.6973         estimate D2E/DX2                !
 ! A41   A(15,19,17)           119.8835         estimate D2E/DX2                !
 ! A42   A(15,19,22)           119.1897         estimate D2E/DX2                !
 ! A43   A(17,19,22)           120.9268         estimate D2E/DX2                !
 ! A44   A(18,20,23)           120.0596         estimate D2E/DX2                !
 ! A45   A(18,20,25)           119.7665         estimate D2E/DX2                !
 ! A46   A(23,20,25)           120.1739         estimate D2E/DX2                !
 ! A47   A(19,22,23)           120.5201         estimate D2E/DX2                !
 ! A48   A(19,22,24)           119.5373         estimate D2E/DX2                !
 ! A49   A(23,22,24)           119.9425         estimate D2E/DX2                !
 ! A50   A(20,23,22)           119.397          estimate D2E/DX2                !
 ! A51   A(20,23,27)           120.355          estimate D2E/DX2                !
 ! A52   A(22,23,27)           120.248          estimate D2E/DX2                !
 ! A53   A(12,28,29)           113.3451         estimate D2E/DX2                !
 ! A54   A(12,28,30)           126.6321         estimate D2E/DX2                !
 ! A55   A(29,28,30)           120.0227         estimate D2E/DX2                !
 ! A56   A(28,30,31)           118.6519         estimate D2E/DX2                !
 ! A57   A(28,30,34)           126.5171         estimate D2E/DX2                !
 ! A58   A(31,30,34)           114.831          estimate D2E/DX2                !
 ! A59   A(33,32,34)           117.701          estimate D2E/DX2                !
 ! A60   A(33,32,41)           118.572          estimate D2E/DX2                !
 ! A61   A(34,32,41)           123.727          estimate D2E/DX2                !
 ! A62   A(32,33,35)           121.3955         estimate D2E/DX2                !
 ! A63   A(32,33,36)           118.9072         estimate D2E/DX2                !
 ! A64   A(35,33,36)           119.6973         estimate D2E/DX2                !
 ! A65   A(30,34,32)           119.8835         estimate D2E/DX2                !
 ! A66   A(30,34,37)           119.1896         estimate D2E/DX2                !
 ! A67   A(32,34,37)           120.9269         estimate D2E/DX2                !
 ! A68   A(33,35,38)           120.0596         estimate D2E/DX2                !
 ! A69   A(33,35,40)           119.7665         estimate D2E/DX2                !
 ! A70   A(38,35,40)           120.1739         estimate D2E/DX2                !
 ! A71   A(34,37,38)           120.5201         estimate D2E/DX2                !
 ! A72   A(34,37,39)           119.5374         estimate D2E/DX2                !
 ! A73   A(38,37,39)           119.9425         estimate D2E/DX2                !
 ! A74   A(35,38,37)           119.397          estimate D2E/DX2                !
 ! A75   A(35,38,42)           120.355          estimate D2E/DX2                !
 ! A76   A(37,38,42)           120.248          estimate D2E/DX2                !
 ! A77   A(3,43,44)            113.3452         estimate D2E/DX2                !
 ! A78   A(3,43,45)            126.6322         estimate D2E/DX2                !
 ! A79   A(44,43,45)           120.0227         estimate D2E/DX2                !
 ! A80   A(43,45,46)           118.6518         estimate D2E/DX2                !
 ! A81   A(43,45,48)           126.5171         estimate D2E/DX2                !
 ! A82   A(46,45,48)           114.831          estimate D2E/DX2                !
 ! A83   A(48,47,52)           119.9986         estimate D2E/DX2                !
 ! A84   A(48,47,53)           119.9995         estimate D2E/DX2                !
 ! A85   A(52,47,53)           120.0019         estimate D2E/DX2                !
 ! A86   A(45,48,47)           119.9801         estimate D2E/DX2                !
 ! A87   A(45,48,49)           120.0137         estimate D2E/DX2                !
 ! A88   A(47,48,49)           120.0062         estimate D2E/DX2                !
 ! A89   A(48,49,50)           119.9947         estimate D2E/DX2                !
 ! A90   A(48,49,54)           120.0115         estimate D2E/DX2                !
 ! A91   A(50,49,54)           119.9938         estimate D2E/DX2                !
 ! A92   A(49,50,51)           119.9949         estimate D2E/DX2                !
 ! A93   A(49,50,55)           119.9782         estimate D2E/DX2                !
 ! A94   A(51,50,55)           120.0269         estimate D2E/DX2                !
 ! A95   A(50,51,52)           120.0057         estimate D2E/DX2                !
 ! A96   A(50,51,56)           120.0089         estimate D2E/DX2                !
 ! A97   A(52,51,56)           119.9854         estimate D2E/DX2                !
 ! A98   A(47,52,51)           119.9998         estimate D2E/DX2                !
 ! A99   A(47,52,57)           120.009          estimate D2E/DX2                !
 ! A100  A(51,52,57)           119.9911         estimate D2E/DX2                !
 ! A101  A(4,58,59)            113.3452         estimate D2E/DX2                !
 ! A102  A(4,58,60)            126.6321         estimate D2E/DX2                !
 ! A103  A(59,58,60)           120.0227         estimate D2E/DX2                !
 ! A104  A(58,60,61)           118.6518         estimate D2E/DX2                !
 ! A105  A(58,60,63)           126.5171         estimate D2E/DX2                !
 ! A106  A(61,60,63)           114.831          estimate D2E/DX2                !
 ! A107  A(63,62,67)           119.9986         estimate D2E/DX2                !
 ! A108  A(63,62,68)           119.9995         estimate D2E/DX2                !
 ! A109  A(67,62,68)           120.0018         estimate D2E/DX2                !
 ! A110  A(60,63,62)           119.9801         estimate D2E/DX2                !
 ! A111  A(60,63,64)           120.0136         estimate D2E/DX2                !
 ! A112  A(62,63,64)           120.0063         estimate D2E/DX2                !
 ! A113  A(63,64,65)           119.9947         estimate D2E/DX2                !
 ! A114  A(63,64,69)           120.0114         estimate D2E/DX2                !
 ! A115  A(65,64,69)           119.9939         estimate D2E/DX2                !
 ! A116  A(64,65,66)           119.9949         estimate D2E/DX2                !
 ! A117  A(64,65,70)           119.9782         estimate D2E/DX2                !
 ! A118  A(66,65,70)           120.0269         estimate D2E/DX2                !
 ! A119  A(65,66,67)           120.0057         estimate D2E/DX2                !
 ! A120  A(65,66,71)           120.009          estimate D2E/DX2                !
 ! A121  A(67,66,71)           119.9853         estimate D2E/DX2                !
 ! A122  A(62,67,66)           119.9998         estimate D2E/DX2                !
 ! A123  A(62,67,72)           120.009          estimate D2E/DX2                !
 ! A124  A(66,67,72)           119.9912         estimate D2E/DX2                !
 ! D1    D(3,1,2,4)              0.0048         estimate D2E/DX2                !
 ! D2    D(3,1,2,8)           -179.9956         estimate D2E/DX2                !
 ! D3    D(7,1,2,4)           -179.9995         estimate D2E/DX2                !
 ! D4    D(7,1,2,8)              0.0            estimate D2E/DX2                !
 ! D5    D(2,1,3,5)              0.0            estimate D2E/DX2                !
 ! D6    D(2,1,3,43)           180.0            estimate D2E/DX2                !
 ! D7    D(7,1,3,5)           -179.9948         estimate D2E/DX2                !
 ! D8    D(7,1,3,43)             0.0052         estimate D2E/DX2                !
 ! D9    D(2,1,7,9)             -0.0019         estimate D2E/DX2                !
 ! D10   D(3,1,7,9)            179.9937         estimate D2E/DX2                !
 ! D11   D(1,2,4,6)             -0.0042         estimate D2E/DX2                !
 ! D12   D(1,2,4,58)          -179.9968         estimate D2E/DX2                !
 ! D13   D(8,2,4,6)            179.9964         estimate D2E/DX2                !
 ! D14   D(8,2,4,58)             0.0038         estimate D2E/DX2                !
 ! D15   D(1,2,8,9)              0.002          estimate D2E/DX2                !
 ! D16   D(4,2,8,9)           -179.9985         estimate D2E/DX2                !
 ! D17   D(1,3,5,6)             -0.0048         estimate D2E/DX2                !
 ! D18   D(1,3,5,11)           179.9947         estimate D2E/DX2                !
 ! D19   D(43,3,5,6)           179.9952         estimate D2E/DX2                !
 ! D20   D(43,3,5,11)           -0.0053         estimate D2E/DX2                !
 ! D21   D(1,3,43,44)          180.0            estimate D2E/DX2                !
 ! D22   D(1,3,43,45)            0.0            estimate D2E/DX2                !
 ! D23   D(5,3,43,44)            0.0            estimate D2E/DX2                !
 ! D24   D(5,3,43,45)          180.0            estimate D2E/DX2                !
 ! D25   D(2,4,6,5)             -0.0007         estimate D2E/DX2                !
 ! D26   D(2,4,6,10)          -179.9957         estimate D2E/DX2                !
 ! D27   D(58,4,6,5)           179.9912         estimate D2E/DX2                !
 ! D28   D(58,4,6,10)           -0.0038         estimate D2E/DX2                !
 ! D29   D(2,4,58,59)           -0.0078         estimate D2E/DX2                !
 ! D30   D(2,4,58,60)          179.9957         estimate D2E/DX2                !
 ! D31   D(6,4,58,59)         -179.9989         estimate D2E/DX2                !
 ! D32   D(6,4,58,60)            0.0046         estimate D2E/DX2                !
 ! D33   D(3,5,6,4)              0.0056         estimate D2E/DX2                !
 ! D34   D(3,5,6,10)          -179.9986         estimate D2E/DX2                !
 ! D35   D(11,5,6,4)          -179.9941         estimate D2E/DX2                !
 ! D36   D(11,5,6,10)            0.0018         estimate D2E/DX2                !
 ! D37   D(3,5,11,12)         -179.9933         estimate D2E/DX2                !
 ! D38   D(6,5,11,12)            0.0063         estimate D2E/DX2                !
 ! D39   D(4,6,10,12)          179.9871         estimate D2E/DX2                !
 ! D40   D(5,6,10,12)           -0.0086         estimate D2E/DX2                !
 ! D41   D(1,7,9,8)              0.0035         estimate D2E/DX2                !
 ! D42   D(1,7,9,13)           179.9881         estimate D2E/DX2                !
 ! D43   D(2,8,9,7)             -0.0034         estimate D2E/DX2                !
 ! D44   D(2,8,9,13)          -179.9856         estimate D2E/DX2                !
 ! D45   D(7,9,13,14)            0.0101         estimate D2E/DX2                !
 ! D46   D(7,9,13,15)         -179.9969         estimate D2E/DX2                !
 ! D47   D(8,9,13,14)          179.992          estimate D2E/DX2                !
 ! D48   D(8,9,13,15)           -0.015          estimate D2E/DX2                !
 ! D49   D(6,10,12,11)           0.0137         estimate D2E/DX2                !
 ! D50   D(6,10,12,28)         179.9906         estimate D2E/DX2                !
 ! D51   D(5,11,12,10)          -0.0125         estimate D2E/DX2                !
 ! D52   D(5,11,12,28)        -179.9856         estimate D2E/DX2                !
 ! D53   D(10,12,28,29)          0.0193         estimate D2E/DX2                !
 ! D54   D(10,12,28,30)       -179.9876         estimate D2E/DX2                !
 ! D55   D(11,12,28,29)        179.992          estimate D2E/DX2                !
 ! D56   D(11,12,28,30)         -0.015          estimate D2E/DX2                !
 ! D57   D(9,13,15,16)           0.0975         estimate D2E/DX2                !
 ! D58   D(9,13,15,19)        -179.9926         estimate D2E/DX2                !
 ! D59   D(14,13,15,16)       -179.9099         estimate D2E/DX2                !
 ! D60   D(14,13,15,19)          0.0            estimate D2E/DX2                !
 ! D61   D(13,15,19,17)          0.0            estimate D2E/DX2                !
 ! D62   D(13,15,19,22)        179.9717         estimate D2E/DX2                !
 ! D63   D(16,15,19,17)        179.9129         estimate D2E/DX2                !
 ! D64   D(16,15,19,22)         -0.1154         estimate D2E/DX2                !
 ! D65   D(19,17,18,20)         -0.0289         estimate D2E/DX2                !
 ! D66   D(19,17,18,21)        179.988          estimate D2E/DX2                !
 ! D67   D(26,17,18,20)        179.9711         estimate D2E/DX2                !
 ! D68   D(26,17,18,21)         -0.012          estimate D2E/DX2                !
 ! D69   D(18,17,19,15)        180.0            estimate D2E/DX2                !
 ! D70   D(18,17,19,22)          0.0288         estimate D2E/DX2                !
 ! D71   D(26,17,19,15)          0.0            estimate D2E/DX2                !
 ! D72   D(26,17,19,22)       -179.9712         estimate D2E/DX2                !
 ! D73   D(17,18,20,23)          0.0104         estimate D2E/DX2                !
 ! D74   D(17,18,20,25)       -179.9924         estimate D2E/DX2                !
 ! D75   D(21,18,20,23)        179.9934         estimate D2E/DX2                !
 ! D76   D(21,18,20,25)         -0.0094         estimate D2E/DX2                !
 ! D77   D(15,19,22,23)       -179.9817         estimate D2E/DX2                !
 ! D78   D(15,19,22,24)          0.0339         estimate D2E/DX2                !
 ! D79   D(17,19,22,23)         -0.0104         estimate D2E/DX2                !
 ! D80   D(17,19,22,24)       -179.9947         estimate D2E/DX2                !
 ! D81   D(18,20,23,22)          0.0091         estimate D2E/DX2                !
 ! D82   D(18,20,23,27)        179.9271         estimate D2E/DX2                !
 ! D83   D(25,20,23,22)       -179.9882         estimate D2E/DX2                !
 ! D84   D(25,20,23,27)         -0.0702         estimate D2E/DX2                !
 ! D85   D(19,22,23,20)         -0.009          estimate D2E/DX2                !
 ! D86   D(19,22,23,27)       -179.9272         estimate D2E/DX2                !
 ! D87   D(24,22,23,20)        179.9753         estimate D2E/DX2                !
 ! D88   D(24,22,23,27)          0.0571         estimate D2E/DX2                !
 ! D89   D(12,28,30,31)          0.0975         estimate D2E/DX2                !
 ! D90   D(12,28,30,34)       -179.9926         estimate D2E/DX2                !
 ! D91   D(29,28,30,31)       -179.9099         estimate D2E/DX2                !
 ! D92   D(29,28,30,34)          0.0            estimate D2E/DX2                !
 ! D93   D(28,30,34,32)          0.0            estimate D2E/DX2                !
 ! D94   D(28,30,34,37)        179.9717         estimate D2E/DX2                !
 ! D95   D(31,30,34,32)        179.9129         estimate D2E/DX2                !
 ! D96   D(31,30,34,37)         -0.1154         estimate D2E/DX2                !
 ! D97   D(34,32,33,35)         -0.0289         estimate D2E/DX2                !
 ! D98   D(34,32,33,36)        179.988          estimate D2E/DX2                !
 ! D99   D(41,32,33,35)        179.9711         estimate D2E/DX2                !
 ! D100  D(41,32,33,36)         -0.012          estimate D2E/DX2                !
 ! D101  D(33,32,34,30)        180.0            estimate D2E/DX2                !
 ! D102  D(33,32,34,37)          0.0288         estimate D2E/DX2                !
 ! D103  D(41,32,34,30)          0.0            estimate D2E/DX2                !
 ! D104  D(41,32,34,37)       -179.9712         estimate D2E/DX2                !
 ! D105  D(32,33,35,38)          0.0104         estimate D2E/DX2                !
 ! D106  D(32,33,35,40)       -179.9924         estimate D2E/DX2                !
 ! D107  D(36,33,35,38)        179.9934         estimate D2E/DX2                !
 ! D108  D(36,33,35,40)         -0.0094         estimate D2E/DX2                !
 ! D109  D(30,34,37,38)       -179.9817         estimate D2E/DX2                !
 ! D110  D(30,34,37,39)          0.0339         estimate D2E/DX2                !
 ! D111  D(32,34,37,38)         -0.0104         estimate D2E/DX2                !
 ! D112  D(32,34,37,39)       -179.9947         estimate D2E/DX2                !
 ! D113  D(33,35,38,37)          0.0091         estimate D2E/DX2                !
 ! D114  D(33,35,38,42)        179.9271         estimate D2E/DX2                !
 ! D115  D(40,35,38,37)       -179.9882         estimate D2E/DX2                !
 ! D116  D(40,35,38,42)         -0.0702         estimate D2E/DX2                !
 ! D117  D(34,37,38,35)         -0.009          estimate D2E/DX2                !
 ! D118  D(34,37,38,42)       -179.9272         estimate D2E/DX2                !
 ! D119  D(39,37,38,35)        179.9753         estimate D2E/DX2                !
 ! D120  D(39,37,38,42)          0.0571         estimate D2E/DX2                !
 ! D121  D(3,43,45,46)           0.0901         estimate D2E/DX2                !
 ! D122  D(3,43,45,48)         180.0            estimate D2E/DX2                !
 ! D123  D(44,43,45,46)       -179.9099         estimate D2E/DX2                !
 ! D124  D(44,43,45,48)          0.0            estimate D2E/DX2                !
 ! D125  D(43,45,48,47)        180.0            estimate D2E/DX2                !
 ! D126  D(43,45,48,49)          0.0            estimate D2E/DX2                !
 ! D127  D(46,45,48,47)         -0.0871         estimate D2E/DX2                !
 ! D128  D(46,45,48,49)        179.9129         estimate D2E/DX2                !
 ! D129  D(52,47,48,45)       -179.9668         estimate D2E/DX2                !
 ! D130  D(52,47,48,49)          0.0332         estimate D2E/DX2                !
 ! D131  D(53,47,48,45)          0.0301         estimate D2E/DX2                !
 ! D132  D(53,47,48,49)       -179.9699         estimate D2E/DX2                !
 ! D133  D(48,47,52,51)          0.0142         estimate D2E/DX2                !
 ! D134  D(48,47,52,57)        179.988          estimate D2E/DX2                !
 ! D135  D(53,47,52,51)       -179.9827         estimate D2E/DX2                !
 ! D136  D(53,47,52,57)         -0.0089         estimate D2E/DX2                !
 ! D137  D(45,48,49,50)        179.9431         estimate D2E/DX2                !
 ! D138  D(45,48,49,54)         -0.0361         estimate D2E/DX2                !
 ! D139  D(47,48,49,50)         -0.0569         estimate D2E/DX2                !
 ! D140  D(47,48,49,54)        179.9639         estimate D2E/DX2                !
 ! D141  D(48,49,50,51)          0.0332         estimate D2E/DX2                !
 ! D142  D(48,49,50,55)       -179.994          estimate D2E/DX2                !
 ! D143  D(54,49,50,51)       -179.9876         estimate D2E/DX2                !
 ! D144  D(54,49,50,55)         -0.0148         estimate D2E/DX2                !
 ! D145  D(49,50,51,52)          0.0143         estimate D2E/DX2                !
 ! D146  D(49,50,51,56)        179.9972         estimate D2E/DX2                !
 ! D147  D(55,50,51,52)       -179.9586         estimate D2E/DX2                !
 ! D148  D(55,50,51,56)          0.0244         estimate D2E/DX2                !
 ! D149  D(50,51,52,47)         -0.0379         estimate D2E/DX2                !
 ! D150  D(50,51,52,57)        179.9883         estimate D2E/DX2                !
 ! D151  D(56,51,52,47)        179.9791         estimate D2E/DX2                !
 ! D152  D(56,51,52,57)          0.0053         estimate D2E/DX2                !
 ! D153  D(4,58,60,61)           0.0864         estimate D2E/DX2                !
 ! D154  D(4,58,60,63)         179.9963         estimate D2E/DX2                !
 ! D155  D(59,58,60,61)       -179.9099         estimate D2E/DX2                !
 ! D156  D(59,58,60,63)          0.0            estimate D2E/DX2                !
 ! D157  D(58,60,63,62)        180.0            estimate D2E/DX2                !
 ! D158  D(58,60,63,64)          0.0            estimate D2E/DX2                !
 ! D159  D(61,60,63,62)         -0.0871         estimate D2E/DX2                !
 ! D160  D(61,60,63,64)        179.9129         estimate D2E/DX2                !
 ! D161  D(67,62,63,60)       -179.9668         estimate D2E/DX2                !
 ! D162  D(67,62,63,64)          0.0332         estimate D2E/DX2                !
 ! D163  D(68,62,63,60)          0.0301         estimate D2E/DX2                !
 ! D164  D(68,62,63,64)       -179.9699         estimate D2E/DX2                !
 ! D165  D(63,62,67,66)          0.0142         estimate D2E/DX2                !
 ! D166  D(63,62,67,72)        179.988          estimate D2E/DX2                !
 ! D167  D(68,62,67,66)       -179.9827         estimate D2E/DX2                !
 ! D168  D(68,62,67,72)         -0.0089         estimate D2E/DX2                !
 ! D169  D(60,63,64,65)        179.9431         estimate D2E/DX2                !
 ! D170  D(60,63,64,69)         -0.0361         estimate D2E/DX2                !
 ! D171  D(62,63,64,65)         -0.0569         estimate D2E/DX2                !
 ! D172  D(62,63,64,69)        179.9639         estimate D2E/DX2                !
 ! D173  D(63,64,65,66)          0.0332         estimate D2E/DX2                !
 ! D174  D(63,64,65,70)       -179.994          estimate D2E/DX2                !
 ! D175  D(69,64,65,66)       -179.9876         estimate D2E/DX2                !
 ! D176  D(69,64,65,70)         -0.0148         estimate D2E/DX2                !
 ! D177  D(64,65,66,67)          0.0143         estimate D2E/DX2                !
 ! D178  D(64,65,66,71)        179.9972         estimate D2E/DX2                !
 ! D179  D(70,65,66,67)       -179.9586         estimate D2E/DX2                !
 ! D180  D(70,65,66,71)          0.0244         estimate D2E/DX2                !
 ! D181  D(65,66,67,62)         -0.0379         estimate D2E/DX2                !
 ! D182  D(65,66,67,72)        179.9883         estimate D2E/DX2                !
 ! D183  D(71,66,67,62)        179.9791         estimate D2E/DX2                !
 ! D184  D(71,66,67,72)          0.0053         estimate D2E/DX2                !
 --------------------------------------------------------------------------------
 Trust Radius=3.00D-01 FncErr=1.00D-07 GrdErr=1.00D-06
 Number of steps in this run=    396 maximum allowed number of steps=    432.
 GradGradGradGradGradGradGradGradGradGradGradGradGradGradGradGradGradGrad

 Stoichiometry    C40H28N2O2
 Framework group  C1[X(C40H28N2O2)]
 Deg. of freedom   210
 Full point group                 C1      NOp   1
 Largest Abelian subgroup         C1      NOp   1
 Largest concise Abelian subgroup C1      NOp   1
                         Standard orientation:                         
 ---------------------------------------------------------------------
 Center     Atomic      Atomic             Coordinates (Angstroms)
 Number     Number       Type             X           Y           Z
 ---------------------------------------------------------------------
      1          6           0       -1.171704    0.660215    0.000254
      2          6           0       -1.146458   -0.750559    0.000254
      3          6           0       -0.055038    1.504830    0.000254
      4          6           0        0.054929   -1.504784    0.000354
      5          6           0        1.146351    0.750505    0.000254
      6          6           0        1.171597   -0.660269    0.000354
      7          8           0       -2.493101    1.033832    0.000154
      8          7           0       -2.447431   -1.222012    0.000154
      9          6           0       -3.196545   -0.154845    0.000054
     10          8           0        2.492994   -1.033886    0.000354
     11          7           0        2.447324    1.221958    0.000154
     12          6           0        3.196436    0.154890    0.000054
     13          6           0       -5.120724   -0.005042    0.000254
     14          1           0       -5.472608    1.023109    0.000254
     15          6           0       -6.010043   -1.025069    0.000254
     16          1           0       -5.633624   -2.044611    0.001754
     17          6           0       -8.536820    0.403081    0.000254
     18          6           0       -9.943901    0.461665    0.000254
     19          6           0       -7.933916   -0.871404    0.000254
     20          6           0      -10.718439   -0.696216   -0.000346
     21          1           0      -10.429635    1.434914    0.000454
     22          6           0       -8.706685   -2.027658   -0.000346
     23          6           0      -10.103209   -1.948694   -0.000746
     24          1           0       -8.218158   -2.998720   -0.000246
     25          1           0      -12.683604   -0.558347   -0.000546
     26          1           0       -7.765247    1.689422    0.000254
     27          1           0      -10.930771   -3.199750    0.000254
     28          6           0        5.120611    0.005043    0.000254
     29          1           0        5.472472   -1.023116    0.000254
     30          6           0        6.009953    1.025051    0.000254
     31          1           0        5.633558    2.044601    0.001754
     32          6           0        8.536698   -0.403157    0.000254
     33          6           0        9.943778   -0.461773    0.000254
     34          6           0        7.933824    0.871342    0.000254
     35          6           0       10.718342    0.696091   -0.000346
     36          1           0       10.429489   -1.435033    0.000454
     37          6           0        8.706619    2.027578   -0.000346
     38          6           0       10.103141    1.948582   -0.000746
     39          1           0        8.218114    2.998652   -0.000246
     40          1           0       12.683505    0.558176   -0.000546
     41          1           0        7.765096   -1.689480    0.000254
     42          1           0       10.930731    3.199620    0.000254
     43          6           0       -0.012452    3.434361    0.000254
     44          1           0        0.994544    3.842867    0.000254
     45          6           0       -1.080347    4.265591    0.000254
     46          1           0       -2.077384    3.833067    0.001754
     47          6           0       -2.224314    6.961076    0.000254
     48          6           0       -1.032925    6.235005    0.000254
     49          6           0        0.191229    6.903386    0.000254
     50          6           0        0.224360    8.298434   -0.000946
     51          6           0       -0.966739    9.024211   -0.001446
     52          6           0       -2.191187    8.355541   -0.000446
     53          1           0       -3.189381    6.434007    0.000754
     54          1           0        1.130336    6.331182    0.000854
     55          1           0        1.189664    8.825124   -0.001046
     56          1           0       -0.940897   10.123673   -0.002346
     57          1           0       -3.130052    8.927950   -0.000646
     58          6           0        0.012447   -3.434317    0.000254
     59          1           0       -0.994526   -3.842878    0.000254
     60          6           0        1.080388   -4.265489    0.000254
     61          1           0        2.077401   -3.832912    0.001754
     62          6           0        2.224500   -6.960912    0.000254
     63          6           0        1.033073   -6.234907    0.000254
     64          6           0       -0.191046   -6.903355    0.000254
     65          6           0       -0.224100   -8.298404   -0.000946
     66          6           0        0.967037   -9.024116   -0.001446
     67          6           0        2.191449   -8.355380   -0.000446
     68          1           0        3.189539   -6.433792    0.000754
     69          1           0       -1.130183   -6.331200    0.000854
     70          1           0       -1.189376   -8.825146   -0.001046
     71          1           0        0.941256  -10.123580   -0.002346
     72          1           0        3.130346   -8.927737   -0.000646
 ---------------------------------------------------------------------
 Rotational constants (GHZ):      0.0483218      0.0308753      0.0188384
 Standard basis: 6-31G(d) (6D, 7F)
 There are   716 symmetry adapted basis functions of A   symmetry.
 Integral buffers will be    131072 words long.
 Raffenetti 2 integral format.
 Two-electron integral symmetry is turned on.
   716 basis functions,  1344 primitive gaussians,   716 cartesian basis functions
   149 alpha electrons      149 beta electrons
       nuclear repulsion energy      3920.6187809279 Hartrees.
 NAtoms=   72 NActive=   72 NUniq=   72 SFac= 1.00D+00 NAtFMM=   60 NAOKFM=T Big=T
 One-electron integrals computed using PRISM.
 NBasis=   716 RedAO= T  NBF=   716
 NBsUse=   716 1.00D-06 NBFU=   716
 Harris functional with IExCor=  402 diagonalized for initial guess.
 ExpMin= 1.61D-01 ExpMax= 5.48D+03 ExpMxC= 8.25D+02 IAcc=1 IRadAn=         1 AccDes= 0.00D+00
 HarFok:  IExCor=  402 AccDes= 0.00D+00 IRadAn=         1 IDoV= 1
 ScaDFX=  1.000000  1.000000  1.000000  1.000000
 FoFCou: FMM=F IPFlag=           0 FMFlag=      100000 FMFlg1=        2001
         NFxFlg=           0 DoJE=T BraDBF=F KetDBF=T FulRan=T
         Omega=  0.000000  0.000000  1.000000  0.000000  0.000000 ICntrl=     500 IOpCl=  0
         NMat0=    1 NMatS0=    1 NMatT0=    0 NMatD0=    1 NMtDS0=    0 NMtDT0=    0
         I1Cent=           4 NGrid=           0.
 Petite list used in FoFCou.
 Initial guess orbital symmetries:
       Occupied  (A) (A) (A) (A) (A) (A) (A) (A) (A) (A) (A) (A)
                 (A) (A) (A) (A) (A) (A) (A) (A) (A) (A) (A) (A)
                 (A) (A) (A) (A) (A) (A) (A) (A) (A) (A) (A) (A)
                 (A) (A) (A) (A) (A) (A) (A) (A) (A) (A) (A) (A)
                 (A) (A) (A) (A) (A) (A) (A) (A) (A) (A) (A) (A)
                 (A) (A) (A) (A) (A) (A) (A) (A) (A) (A) (A) (A)
                 (A) (A) (A) (A) (A) (A) (A) (A) (A) (A) (A) (A)
                 (A) (A) (A) (A) (A) (A) (A) (A) (A) (A) (A) (A)
                 (A) (A) (A) (A) (A) (A) (A) (A) (A) (A) (A) (A)
                 (A) (A) (A) (A) (A) (A) (A) (A) (A) (A) (A) (A)
                 (A) (A) (A) (A) (A) (A) (A) (A) (A) (A) (A) (A)
                 (A) (A) (A) (A) (A) (A) (A) (A) (A) (A) (A) (A)
                 (A) (A) (A) (A) (A)
       Virtual   (A) (A) (A) (A) (A) (A) (A) (A) (A) (A) (A) (A)
                 (A) (A) (A) (A) (A) (A) (A) (A) (A) (A) (A) (A)
                 (A) (A) (A) (A) (A) (A) (A) (A) (A) (A) (A) (A)
                 (A) (A) (A) (A) (A) (A) (A) (A) (A) (A) (A) (A)
                 (A) (A) (A) (A) (A) (A) (A) (A) (A) (A) (A) (A)
                 (A) (A) (A) (A) (A) (A) (A) (A) (A) (A) (A) (A)
                 (A) (A) (A) (A) (A) (A) (A) (A) (A) (A) (A) (A)
                 (A) (A) (A) (A) (A) (A) (A) (A) (A) (A) (A) (A)
                 (A) (A) (A) (A) (A) (A) (A) (A) (A) (A) (A) (A)
                 (A) (A) (A) (A) (A) (A) (A) (A) (A) (A) (A) (A)
                 (A) (A) (A) (A) (A) (A) (A) (A) (A) (A) (A) (A)
                 (A) (A) (A) (A) (A) (A) (A) (A) (A) (A) (A) (A)
                 (A) (A) (A) (A) (A) (A) (A) (A) (A) (A) (A) (A)
                 (A) (A) (A) (A) (A) (A) (A) (A) (A) (A) (A) (A)
                 (A) (A) (A) (A) (A) (A) (A) (A) (A) (A) (A) (A)
                 (A) (A) (A) (A) (A) (A) (A) (A) (A) (A) (A) (A)
                 (A) (A) (A) (A) (A) (A) (A) (A) (A) (A) (A) (A)
                 (A) (A) (A) (A) (A) (A) (A) (A) (A) (A) (A) (A)
                 (A) (A) (A) (A) (A) (A) (A) (A) (A) (A) (A) (A)
                 (A) (A) (A) (A) (A) (A) (A) (A) (A) (A) (A) (A)
                 (A) (A) (A) (A) (A) (A) (A) (A) (A) (A) (A) (A)
                 (A) (A) (A) (A) (A) (A) (A) (A) (A) (A) (A) (A)
                 (A) (A) (A) (A) (A) (A) (A) (A) (A) (A) (A) (A)
                 (A) (A) (A) (A) (A) (A) (A) (A) (A) (A) (A) (A)
                 (A) (A) (A) (A) (A) (A) (A) (A) (A) (A) (A) (A)
                 (A) (A) (A) (A) (A) (A) (A) (A) (A) (A) (A) (A)
                 (A) (A) (A) (A) (A) (A) (A) (A) (A) (A) (A) (A)
                 (A) (A) (A) (A) (A) (A) (A) (A) (A) (A) (A) (A)
                 (A) (A) (A) (A) (A) (A) (A) (A) (A) (A) (A) (A)
                 (A) (A) (A) (A) (A) (A) (A) (A) (A) (A) (A) (A)
                 (A) (A) (A) (A) (A) (A) (A) (A) (A) (A) (A) (A)
                 (A) (A) (A) (A) (A) (A) (A) (A) (A) (A) (A) (A)
                 (A) (A) (A) (A) (A) (A) (A) (A) (A) (A) (A) (A)
                 (A) (A) (A) (A) (A) (A) (A) (A) (A) (A) (A) (A)
                 (A) (A) (A) (A) (A) (A) (A) (A) (A) (A) (A) (A)
                 (A) (A) (A) (A) (A) (A) (A) (A) (A) (A) (A) (A)
                 (A) (A) (A) (A) (A) (A) (A) (A) (A) (A) (A) (A)
                 (A) (A) (A) (A) (A) (A) (A) (A) (A) (A) (A) (A)
                 (A) (A) (A) (A) (A) (A) (A) (A) (A) (A) (A) (A)
                 (A) (A) (A) (A) (A) (A) (A) (A) (A) (A) (A) (A)
                 (A) (A) (A) (A) (A) (A) (A) (A) (A) (A) (A) (A)
                 (A) (A) (A) (A) (A) (A) (A) (A) (A) (A) (A) (A)
                 (A) (A) (A) (A) (A) (A) (A) (A) (A) (A) (A) (A)
                 (A) (A) (A) (A) (A) (A) (A) (A) (A) (A) (A) (A)
                 (A) (A) (A) (A) (A) (A) (A) (A) (A) (A) (A) (A)
                 (A) (A) (A) (A) (A) (A) (A) (A) (A) (A) (A) (A)
                 (A) (A) (A) (A) (A) (A) (A) (A) (A) (A) (A) (A)
                 (A) (A) (A)
 The electronic state of the initial guess is 1-A.
 Requested convergence on RMS density matrix=1.00D-08 within 128 cycles.
 Requested convergence on MAX density matrix=1.00D-06.
 Requested convergence on             energy=1.00D-06.
 No special actions if energy rises.
 Integral accuracy reduced to 1.0D-05 until final iterations.
 Initial convergence to 1.0D-05 achieved.  Increase integral accuracy.
 SCF Done:  E(RB3LYP) =  -1800.04337680     A.U. after   14 cycles
             Convg  =    0.9531D-08             -V/T =  2.0128

 **********************************************************************

            Population analysis using the SCF density.

 **********************************************************************

 Orbital symmetries:
       Occupied  (A) (A) (A) (A) (A) (A) (A) (A) (A) (A) (A) (A)
                 (A) (A) (A) (A) (A) (A) (A) (A) (A) (A) (A) (A)
                 (A) (A) (A) (A) (A) (A) (A) (A) (A) (A) (A) (A)
                 (A) (A) (A) (A) (A) (A) (A) (A) (A) (A) (A) (A)
                 (A) (A) (A) (A) (A) (A) (A) (A) (A) (A) (A) (A)
                 (A) (A) (A) (A) (A) (A) (A) (A) (A) (A) (A) (A)
                 (A) (A) (A) (A) (A) (A) (A) (A) (A) (A) (A) (A)
                 (A) (A) (A) (A) (A) (A) (A) (A) (A) (A) (A) (A)
                 (A) (A) (A) (A) (A) (A) (A) (A) (A) (A) (A) (A)
                 (A) (A) (A) (A) (A) (A) (A) (A) (A) (A) (A) (A)
                 (A) (A) (A) (A) (A) (A) (A) (A) (A) (A) (A) (A)
                 (A) (A) (A) (A) (A) (A) (A) (A) (A) (A) (A) (A)
                 (A) (A) (A) (A) (A)
       Virtual   (A) (A) (A) (A) (A) (A) (A) (A) (A) (A) (A) (A)
                 (A) (A) (A) (A) (A) (A) (A) (A) (A) (A) (A) (A)
                 (A) (A) (A) (A) (A) (A) (A) (A) (A) (A) (A) (A)
                 (A) (A) (A) (A) (A) (A) (A) (A) (A) (A) (A) (A)
                 (A) (A) (A) (A) (A) (A) (A) (A) (A) (A) (A) (A)
                 (A) (A) (A) (A) (A) (A) (A) (A) (A) (A) (A) (A)
                 (A) (A) (A) (A) (A) (A) (A) (A) (A) (A) (A) (A)
                 (A) (A) (A) (A) (A) (A) (A) (A) (A) (A) (A) (A)
                 (A) (A) (A) (A) (A) (A) (A) (A) (A) (A) (A) (A)
                 (A) (A) (A) (A) (A) (A) (A) (A) (A) (A) (A) (A)
                 (A) (A) (A) (A) (A) (A) (A) (A) (A) (A) (A) (A)
                 (A) (A) (A) (A) (A) (A) (A) (A) (A) (A) (A) (A)
                 (A) (A) (A) (A) (A) (A) (A) (A) (A) (A) (A) (A)
                 (A) (A) (A) (A) (A) (A) (A) (A) (A) (A) (A) (A)
                 (A) (A) (A) (A) (A) (A) (A) (A) (A) (A) (A) (A)
                 (A) (A) (A) (A) (A) (A) (A) (A) (A) (A) (A) (A)
                 (A) (A) (A) (A) (A) (A) (A) (A) (A) (A) (A) (A)
                 (A) (A) (A) (A) (A) (A) (A) (A) (A) (A) (A) (A)
                 (A) (A) (A) (A) (A) (A) (A) (A) (A) (A) (A) (A)
                 (A) (A) (A) (A) (A) (A) (A) (A) (A) (A) (A) (A)
                 (A) (A) (A) (A) (A) (A) (A) (A) (A) (A) (A) (A)
                 (A) (A) (A) (A) (A) (A) (A) (A) (A) (A) (A) (A)
                 (A) (A) (A) (A) (A) (A) (A) (A) (A) (A) (A) (A)
                 (A) (A) (A) (A) (A) (A) (A) (A) (A) (A) (A) (A)
                 (A) (A) (A) (A) (A) (A) (A) (A) (A) (A) (A) (A)
                 (A) (A) (A) (A) (A) (A) (A) (A) (A) (A) (A) (A)
                 (A) (A) (A) (A) (A) (A) (A) (A) (A) (A) (A) (A)
                 (A) (A) (A) (A) (A) (A) (A) (A) (A) (A) (A) (A)
                 (A) (A) (A) (A) (A) (A) (A) (A) (A) (A) (A) (A)
                 (A) (A) (A) (A) (A) (A) (A) (A) (A) (A) (A) (A)
                 (A) (A) (A) (A) (A) (A) (A) (A) (A) (A) (A) (A)
                 (A) (A) (A) (A) (A) (A) (A) (A) (A) (A) (A) (A)
                 (A) (A) (A) (A) (A) (A) (A) (A) (A) (A) (A) (A)
                 (A) (A) (A) (A) (A) (A) (A) (A) (A) (A) (A) (A)
                 (A) (A) (A) (A) (A) (A) (A) (A) (A) (A) (A) (A)
                 (A) (A) (A) (A) (A) (A) (A) (A) (A) (A) (A) (A)
                 (A) (A) (A) (A) (A) (A) (A) (A) (A) (A) (A) (A)
                 (A) (A) (A) (A) (A) (A) (A) (A) (A) (A) (A) (A)
                 (A) (A) (A) (A) (A) (A) (A) (A) (A) (A) (A) (A)
                 (A) (A) (A) (A) (A) (A) (A) (A) (A) (A) (A) (A)
                 (A) (A) (A) (A) (A) (A) (A) (A) (A) (A) (A) (A)
                 (A) (A) (A) (A) (A) (A) (A) (A) (A) (A) (A) (A)
                 (A) (A) (A) (A) (A) (A) (A) (A) (A) (A) (A) (A)
                 (A) (A) (A) (A) (A) (A) (A) (A) (A) (A) (A) (A)
                 (A) (A) (A) (A) (A) (A) (A) (A) (A) (A) (A) (A)
                 (A) (A) (A) (A) (A) (A) (A) (A) (A) (A) (A) (A)
                 (A) (A) (A) (A) (A) (A) (A) (A) (A) (A) (A) (A)
                 (A) (A) (A)
 The electronic state is 1-A.
 Alpha  occ. eigenvalues --  -19.23269 -19.23268 -14.34348 -14.34348 -10.31607
 Alpha  occ. eigenvalues --  -10.31607 -10.26266 -10.26265 -10.25822 -10.25822
 Alpha  occ. eigenvalues --  -10.25355 -10.25355 -10.25138 -10.25138 -10.24999
 Alpha  occ. eigenvalues --  -10.24999 -10.24907 -10.24907 -10.24211 -10.24210
 Alpha  occ. eigenvalues --  -10.24187 -10.24187 -10.23655 -10.23654 -10.23019
 Alpha  occ. eigenvalues --  -10.23018 -10.23005 -10.23004 -10.22285 -10.22284
 Alpha  occ. eigenvalues --  -10.22237 -10.22237 -10.22227 -10.22227 -10.19923
 Alpha  occ. eigenvalues --  -10.19923 -10.19811 -10.19811 -10.19762 -10.19762
 Alpha  occ. eigenvalues --  -10.19719 -10.19718 -10.19512 -10.19511  -1.13305
 Alpha  occ. eigenvalues --   -1.13213  -0.93436  -0.93249  -0.87474  -0.87474
 Alpha  occ. eigenvalues --   -0.85625  -0.85608  -0.85565  -0.77795  -0.77441
 Alpha  occ. eigenvalues --   -0.76902  -0.76232  -0.76163  -0.75620  -0.75216
 Alpha  occ. eigenvalues --   -0.74837  -0.74836  -0.74529  -0.74216  -0.73600
 Alpha  occ. eigenvalues --   -0.73280  -0.72528  -0.65950  -0.62049  -0.61521
 Alpha  occ. eigenvalues --   -0.61513  -0.60550  -0.60528  -0.60203  -0.59873
 Alpha  occ. eigenvalues --   -0.59428  -0.59172  -0.59048  -0.58704  -0.56434
 Alpha  occ. eigenvalues --   -0.56155  -0.55060  -0.54829  -0.54602  -0.51385
 Alpha  occ. eigenvalues --   -0.51334  -0.50730  -0.48766  -0.48599  -0.48386
 Alpha  occ. eigenvalues --   -0.47055  -0.47027  -0.46948  -0.45636  -0.45575
 Alpha  occ. eigenvalues --   -0.45418  -0.45138  -0.45078  -0.44918  -0.44800
 Alpha  occ. eigenvalues --   -0.43855  -0.42533  -0.42465  -0.42355  -0.42311
 Alpha  occ. eigenvalues --   -0.41656  -0.41055  -0.40948  -0.40662  -0.39967
 Alpha  occ. eigenvalues --   -0.39525  -0.39296  -0.38825  -0.38824  -0.38366
 Alpha  occ. eigenvalues --   -0.38345  -0.37054  -0.36946  -0.36946  -0.35819
 Alpha  occ. eigenvalues --   -0.35573  -0.35011  -0.34772  -0.34770  -0.34184
 Alpha  occ. eigenvalues --   -0.34183  -0.33511  -0.33124  -0.32330  -0.30787
 Alpha  occ. eigenvalues --   -0.30106  -0.30022  -0.29802  -0.29552  -0.29081
 Alpha  occ. eigenvalues --   -0.28980  -0.28407  -0.27880  -0.27869  -0.27291
 Alpha  occ. eigenvalues --   -0.27284  -0.26573  -0.26182  -0.25476  -0.25474
 Alpha  occ. eigenvalues --   -0.25215  -0.24498  -0.23520  -0.21995
 Alpha virt. eigenvalues --   -0.08994  -0.08992  -0.06029  -0.03890  -0.03754
 Alpha virt. eigenvalues --   -0.03253  -0.03165  -0.02182  -0.02174  -0.01463
 Alpha virt. eigenvalues --   -0.01360  -0.01249  -0.01085  -0.00355  -0.00351
 Alpha virt. eigenvalues --    0.00048   0.00615   0.00817   0.00832   0.02278
 Alpha virt. eigenvalues --    0.02675   0.02957   0.03235   0.04678   0.04685
 Alpha virt. eigenvalues --    0.05935   0.06392   0.06849   0.06937   0.07257
 Alpha virt. eigenvalues --    0.09761   0.09796   0.11742   0.11836   0.12276
 Alpha virt. eigenvalues --    0.12335   0.14457   0.14555   0.14682   0.14684
 Alpha virt. eigenvalues --    0.14736   0.14759   0.15272   0.15520   0.16082
 Alpha virt. eigenvalues --    0.16276   0.16344   0.16919   0.16924   0.17699
 Alpha virt. eigenvalues --    0.17824   0.17927   0.18095   0.18997   0.19313
 Alpha virt. eigenvalues --    0.20455   0.21446   0.21773   0.22995   0.23935
 Alpha virt. eigenvalues --    0.24356   0.24618   0.25152   0.25202   0.26998
 Alpha virt. eigenvalues --    0.27918   0.28700   0.28788   0.28864   0.29547
 Alpha virt. eigenvalues --    0.30004   0.30563   0.30669   0.31564   0.31627
 Alpha virt. eigenvalues --    0.31681   0.32605   0.32882   0.32981   0.33222
 Alpha virt. eigenvalues --    0.34484   0.35081   0.36206   0.37121   0.38943
 Alpha virt. eigenvalues --    0.40296   0.40717   0.40953   0.41425   0.44380
 Alpha virt. eigenvalues --    0.44783   0.45992   0.46043   0.47949   0.48883
 Alpha virt. eigenvalues --    0.49161   0.49225   0.49554   0.50830   0.51000
 Alpha virt. eigenvalues --    0.51091   0.51191   0.51304   0.51326   0.51877
 Alpha virt. eigenvalues --    0.51999   0.53238   0.53436   0.53529   0.53837
 Alpha virt. eigenvalues --    0.54253   0.54415   0.54782   0.54915   0.55274
 Alpha virt. eigenvalues --    0.55305   0.55433   0.55535   0.55739   0.55780
 Alpha virt. eigenvalues --    0.55839   0.56519   0.56571   0.56732   0.56983
 Alpha virt. eigenvalues --    0.57589   0.57746   0.57954   0.58100   0.59028
 Alpha virt. eigenvalues --    0.59043   0.59144   0.59185   0.59202   0.59465
 Alpha virt. eigenvalues --    0.59538   0.59582   0.59771   0.60063   0.60194
 Alpha virt. eigenvalues --    0.60603   0.60743   0.60826   0.61277   0.61339
 Alpha virt. eigenvalues --    0.61612   0.61796   0.62372   0.62939   0.63072
 Alpha virt. eigenvalues --    0.63286   0.63374   0.63851   0.64122   0.64158
 Alpha virt. eigenvalues --    0.64265   0.64570   0.64595   0.65083   0.65514
 Alpha virt. eigenvalues --    0.65579   0.65982   0.66720   0.67765   0.67855
 Alpha virt. eigenvalues --    0.68650   0.68815   0.69451   0.69459   0.69591
 Alpha virt. eigenvalues --    0.70027   0.70042   0.70682   0.70727   0.71541
 Alpha virt. eigenvalues --    0.71547   0.71731   0.71818   0.72347   0.73424
 Alpha virt. eigenvalues --    0.74848   0.74870   0.76197   0.76654   0.76688
 Alpha virt. eigenvalues --    0.76717   0.77639   0.80032   0.81016   0.81170
 Alpha virt. eigenvalues --    0.81305   0.81514   0.81855   0.82175   0.82306
 Alpha virt. eigenvalues --    0.82425   0.82644   0.82888   0.83053   0.83057
 Alpha virt. eigenvalues --    0.83450   0.83683   0.83889   0.84273   0.84456
 Alpha virt. eigenvalues --    0.84739   0.84905   0.85820   0.86109   0.86470
 Alpha virt. eigenvalues --    0.86548   0.87000   0.88261   0.88534   0.88759
 Alpha virt. eigenvalues --    0.88833   0.89311   0.89651   0.90493   0.91165
 Alpha virt. eigenvalues --    0.91332   0.91504   0.92055   0.92066   0.93428
 Alpha virt. eigenvalues --    0.93621   0.93954   0.94564   0.95215   0.95452
 Alpha virt. eigenvalues --    0.95495   0.95651   0.96084   0.96744   0.97136
 Alpha virt. eigenvalues --    0.97387   0.98126   0.99715   1.00269   1.00751
 Alpha virt. eigenvalues --    1.01037   1.01125   1.01413   1.02516   1.03250
 Alpha virt. eigenvalues --    1.04853   1.06359   1.06832   1.07930   1.08776
 Alpha virt. eigenvalues --    1.09470   1.09644   1.10082   1.10451   1.10841
 Alpha virt. eigenvalues --    1.10897   1.11151   1.11801   1.12642   1.12691
 Alpha virt. eigenvalues --    1.13458   1.13790   1.13791   1.16037   1.16468
 Alpha virt. eigenvalues --    1.16643   1.16761   1.16809   1.18094   1.19904
 Alpha virt. eigenvalues --    1.20079   1.20786   1.22275   1.22789   1.23022
 Alpha virt. eigenvalues --    1.23026   1.23968   1.24413   1.25043   1.25223
 Alpha virt. eigenvalues --    1.25226   1.25862   1.26150   1.27078   1.30934
 Alpha virt. eigenvalues --    1.30958   1.31272   1.31898   1.32191   1.32688
 Alpha virt. eigenvalues --    1.33103   1.35571   1.36932   1.36959   1.37010
 Alpha virt. eigenvalues --    1.37275   1.38162   1.38818   1.38906   1.41380
 Alpha virt. eigenvalues --    1.41426   1.41779   1.42281   1.42668   1.42712
 Alpha virt. eigenvalues --    1.43782   1.44424   1.44810   1.44931   1.45038
 Alpha virt. eigenvalues --    1.45480   1.45579   1.46094   1.46294   1.47700
 Alpha virt. eigenvalues --    1.47724   1.47766   1.47803   1.47881   1.48348
 Alpha virt. eigenvalues --    1.48503   1.48931   1.49077   1.49199   1.49509
 Alpha virt. eigenvalues --    1.49581   1.50753   1.50754   1.51646   1.51783
 Alpha virt. eigenvalues --    1.51990   1.52825   1.53304   1.55706   1.56327
 Alpha virt. eigenvalues --    1.57566   1.60575   1.61584   1.63024   1.63173
 Alpha virt. eigenvalues --    1.65177   1.65542   1.65590   1.65990   1.66136
 Alpha virt. eigenvalues --    1.66193   1.67829   1.67861   1.72461   1.74648
 Alpha virt. eigenvalues --    1.74670   1.76652   1.76681   1.78163   1.78992
 Alpha virt. eigenvalues --    1.79609   1.79878   1.81204   1.81286   1.82113
 Alpha virt. eigenvalues --    1.83583   1.85394   1.85869   1.86747   1.86758
 Alpha virt. eigenvalues --    1.87034   1.87374   1.88120   1.88772   1.88892
 Alpha virt. eigenvalues --    1.90986   1.92193   1.92437   1.93297   1.93513
 Alpha virt. eigenvalues --    1.94817   1.94864   1.94906   1.95000   1.95034
 Alpha virt. eigenvalues --    1.98835   1.98835   1.98951   2.00054   2.01148
 Alpha virt. eigenvalues --    2.02523   2.02807   2.03324   2.03566   2.04542
 Alpha virt. eigenvalues --    2.04714   2.04920   2.05602   2.06482   2.07384
 Alpha virt. eigenvalues --    2.07664   2.08492   2.08763   2.08974   2.09520
 Alpha virt. eigenvalues --    2.09849   2.11953   2.12149   2.12316   2.12318
 Alpha virt. eigenvalues --    2.12648   2.13140   2.13210   2.13230   2.13821
 Alpha virt. eigenvalues --    2.13837   2.14456   2.14462   2.14502   2.14889
 Alpha virt. eigenvalues --    2.14910   2.15104   2.15114   2.15620   2.15949
 Alpha virt. eigenvalues --    2.16597   2.18140   2.19991   2.21745   2.23825
 Alpha virt. eigenvalues --    2.24675   2.25715   2.26486   2.26489   2.26957
 Alpha virt. eigenvalues --    2.28888   2.28893   2.29085   2.29431   2.30062
 Alpha virt. eigenvalues --    2.30125   2.30127   2.30269   2.30270   2.30332
 Alpha virt. eigenvalues --    2.31821   2.31834   2.31846   2.32646   2.32971
 Alpha virt. eigenvalues --    2.34628   2.34765   2.35032   2.36540   2.36665
 Alpha virt. eigenvalues --    2.38550   2.39290   2.40963   2.43241   2.46124
 Alpha virt. eigenvalues --    2.48290   2.49101   2.49292   2.50066   2.50484
 Alpha virt. eigenvalues --    2.53194   2.53760   2.53990   2.54073   2.56966
 Alpha virt. eigenvalues --    2.57384   2.59039   2.59241   2.61387   2.61394
 Alpha virt. eigenvalues --    2.61618   2.62324   2.62325   2.62680   2.65156
 Alpha virt. eigenvalues --    2.65157   2.65291   2.65958   2.66391   2.66598
 Alpha virt. eigenvalues --    2.66604   2.69013   2.69667   2.70515   2.70600
 Alpha virt. eigenvalues --    2.71158   2.71198   2.72137   2.72190   2.72485
 Alpha virt. eigenvalues --    2.73064   2.74066   2.74275   2.74989   2.75102
 Alpha virt. eigenvalues --    2.75659   2.75829   2.75939   2.77506   2.78366
 Alpha virt. eigenvalues --    2.78824   2.79087   2.79799   2.80697   2.85901
 Alpha virt. eigenvalues --    2.87075   2.89509   2.90802   2.95812   3.01640
 Alpha virt. eigenvalues --    3.01643   3.03599   3.03613   3.04424   3.04831
 Alpha virt. eigenvalues --    3.14375   3.17717   3.25250   3.25255   3.28678
 Alpha virt. eigenvalues --    3.37130   3.37267   3.40298   3.95074   3.96950
 Alpha virt. eigenvalues --    3.99430   4.00091   4.01781   4.02098   4.03077
 Alpha virt. eigenvalues --    4.03193   4.06582   4.06606   4.07276   4.07356
 Alpha virt. eigenvalues --    4.08347   4.08416   4.09569   4.09632   4.10838
 Alpha virt. eigenvalues --    4.10878   4.14966   4.15701   4.17221   4.18578
 Alpha virt. eigenvalues --    4.24848   4.25442   4.26601   4.27115   4.28756
 Alpha virt. eigenvalues --    4.28765   4.30049   4.30080   4.32184   4.32209
 Alpha virt. eigenvalues --    4.32679   4.32679   4.38349   4.39349   4.43993
 Alpha virt. eigenvalues --    4.58166   4.61575   4.61610   4.64592   4.65178
 Alpha virt. eigenvalues --    4.65181   4.81621
          Condensed to atoms (all electrons):
 Mulliken atomic charges:
              1
     1  C    0.254131
     2  C    0.161698
     3  C    0.035271
     4  C    0.035264
     5  C    0.161650
     6  C    0.254202
     7  O   -0.495981
     8  N   -0.508887
     9  C    0.441338
    10  O   -0.496040
    11  N   -0.508844
    12  C    0.441352
    13  C   -0.157636
    14  H    0.160302
    15  C   -0.160897
    16  H    0.171077
    17  C   -0.105751
    18  C   -0.173349
    19  C    0.092447
    20  C    0.019026
    21  H    0.164328
    22  C   -0.171945
    23  C   -0.106796
    24  H    0.161230
    25  H   -0.014989
    26  H    0.093264
    27  H    0.096941
    28  C   -0.157637
    29  H    0.160304
    30  C   -0.160897
    31  H    0.171073
    32  C   -0.105751
    33  C   -0.173349
    34  C    0.092447
    35  C    0.019026
    36  H    0.164328
    37  C   -0.171945
    38  C   -0.106796
    39  H    0.161229
    40  H   -0.014989
    41  H    0.093265
    42  H    0.096941
    43  C   -0.150585
    44  H    0.167576
    45  C   -0.184125
    46  H    0.156865
    47  C   -0.191176
    48  C    0.121545
    49  C   -0.183117
    50  C   -0.122943
    51  C   -0.129732
    52  C   -0.123238
    53  H    0.138549
    54  H    0.140089
    55  H    0.136386
    56  H    0.133069
    57  H    0.136023
    58  C   -0.150590
    59  H    0.167570
    60  C   -0.184132
    61  H    0.156865
    62  C   -0.191177
    63  C    0.121544
    64  C   -0.183118
    65  C   -0.122943
    66  C   -0.129732
    67  C   -0.123239
    68  H    0.138547
    69  H    0.140089
    70  H    0.136385
    71  H    0.133067
    72  H    0.136021
 Sum of Mulliken atomic charges =   0.00000
 Mulliken charges with hydrogens summed into heavy atoms:
              1
     1  C    0.254131
     2  C    0.161698
     3  C    0.035271
     4  C    0.035264
     5  C    0.161650
     6  C    0.254202
     7  O   -0.495981
     8  N   -0.508887
     9  C    0.441338
    10  O   -0.496040
    11  N   -0.508844
    12  C    0.441352
    13  C    0.002666
    15  C    0.010180
    17  C   -0.012487
    18  C   -0.009021
    19  C    0.092447
    20  C    0.004038
    22  C   -0.010715
    23  C   -0.009855
    28  C    0.002667
    30  C    0.010176
    32  C   -0.012486
    33  C   -0.009021
    34  C    0.092447
    35  C    0.004038
    37  C   -0.010716
    38  C   -0.009855
    43  C    0.016991
    45  C   -0.027261
    47  C   -0.052627
    48  C    0.121545
    49  C   -0.043028
    50  C    0.013443
    51  C    0.003337
    52  C    0.012785
    58  C    0.016981
    60  C   -0.027267
    62  C   -0.052630
    63  C    0.121544
    64  C   -0.043029
    65  C    0.013441
    66  C    0.003335
    67  C    0.012783
 Sum of Mulliken charges with hydrogens summed into heavy atoms =   0.00000
 Electronic spatial extent (au):  <R**2>=          51989.6467
 Charge=              0.0000 electrons
 Dipole moment (field-independent basis, Debye):
    X=              0.0000    Y=              0.0010    Z=              0.0050  Tot=              0.0051
 Quadrupole moment (field-independent basis, Debye-Ang):
   XX=           -219.0053   YY=           -205.5416   ZZ=           -270.7120
   XY=             -3.4601   XZ=             -0.0002   YZ=              0.0003
 Traceless Quadrupole moment (field-independent basis, Debye-Ang):
   XX=             12.7477   YY=             26.2113   ZZ=            -38.9590
   XY=             -3.4601   XZ=             -0.0002   YZ=              0.0003
 Octapole moment (field-independent basis, Debye-Ang**2):
  XXX=             -0.0019  YYY=              0.0368  ZZZ=              0.0107  XYY=             -0.0005
  XXY=              0.0056  XXZ=              0.2477  XZZ=              0.0000  YZZ=              0.0003
  YYZ=             -0.0951  XYZ=              0.0449
 Hexadecapole moment (field-independent basis, Debye-Ang**3):
 XXXX=         -44952.0042 YYYY=         -23652.7240 ZZZZ=           -276.2384 XXXY=           -187.8196
 XXXZ=             -0.0106 YYYX=           -182.1160 YYYZ=              0.0065 ZZZX=             -0.0093
 ZZZY=              0.0069 XXYY=         -10706.8664 XXZZ=          -8430.8060 YYZZ=          -5264.6041
 XXYZ=              0.0044 YYXZ=             -0.0033 ZZXY=            -27.7171
 N-N= 3.920618780928D+03 E-N=-1.201022783698D+04  KE= 1.777335720128D+03
 Calling FoFJK, ICntrl=      2127 FMM=T ISym2X=0 I1Cent= 0 IOpClX= 0 NMat=1 NMatS=1 NMatT=0.
 ***** Axes restored to original set *****
 -------------------------------------------------------------------
 Center     Atomic                   Forces (Hartrees/Bohr)
 Number     Number              X              Y              Z
 -------------------------------------------------------------------
      1        6          -0.019352671    0.007501188   -0.000004120
      2        6           0.021387704    0.013512726    0.000001370
      3        6          -0.057628108    0.004407883    0.000011224
      4        6           0.057700044   -0.004398823    0.000000085
      5        6          -0.021426278   -0.013542242    0.000003076
      6        6           0.019310079   -0.007472295   -0.000000692
      7        8           0.001192890   -0.018922192   -0.000001673
      8        7          -0.009950084   -0.028744082   -0.000004019
      9        6           0.004080947   -0.060186294    0.000042936
     10        8          -0.001220946    0.018931894   -0.000018957
     11        7           0.009893584    0.028711774   -0.000016301
     12        6          -0.003986630    0.060207246    0.000063658
     13        6           0.017650092    0.037600238   -0.000030209
     14        1          -0.002862707    0.011950242   -0.000030953
     15        6          -0.017325522   -0.032822764    0.000100261
     16        1           0.003387321   -0.009101559   -0.000064453
     17        6          -0.046692571    0.038972422    0.000015917
     18        6          -0.017356464   -0.004943702   -0.000035614
     19        6          -0.023404139    0.079878986   -0.000049021
     20        6           0.009290974   -0.044698477   -0.000002803
     21        1           0.001215121    0.000495740   -0.000000594
     22        6           0.009336254    0.004357741    0.000018511
     23        6           0.060423049   -0.062905104    0.000131249
     24        1          -0.000236291   -0.000931029   -0.000005054
     25        1           0.005939332    0.075798249    0.000010046
     26        1           0.083208680   -0.049821333    0.000009937
     27        1          -0.078969533    0.056026044   -0.000096878
     28        6          -0.017652276   -0.037598613   -0.000029197
     29        1           0.002862134   -0.011950699   -0.000030967
     30        6           0.017327091    0.032822616    0.000100121
     31        1          -0.003387417    0.009101673   -0.000064469
     32        6           0.046692039   -0.038973350    0.000015927
     33        6           0.017356862    0.004943523   -0.000035613
     34        6           0.023402001   -0.079879884   -0.000049141
     35        6          -0.009289639    0.044698769   -0.000002802
     36        1          -0.001215408   -0.000495865   -0.000000595
     37        6          -0.009336462   -0.004356914    0.000018526
     38        6          -0.060422011    0.062906139    0.000131255
     39        1           0.000236324    0.000930951   -0.000005059
     40        1          -0.005941066   -0.075798051    0.000010046
     41        1          -0.083207601    0.049823228    0.000009939
     42        1           0.078968254   -0.056027798   -0.000096879
     43        6           0.037383898   -0.019364826   -0.000014159
     44        1           0.012653200    0.003583751   -0.000031336
     45        6          -0.035358375    0.016131828    0.000110369
     46        1          -0.010021497   -0.004090646   -0.000062563
     47        6           0.017972548   -0.010753739    0.000000356
     48        6           0.069549388    0.002423891    0.000028057
     49        6           0.015459238    0.008771608   -0.000040516
     50        6          -0.004251041    0.005911456    0.000040480
     51        6          -0.010479508   -0.000088592    0.000016817
     52        6          -0.005920106   -0.004517437   -0.000041842
     53        1          -0.004106976    0.007222222   -0.000010311
     54        1          -0.004921257   -0.006978894   -0.000014079
     55        1           0.004648119   -0.007217528   -0.000012172
     56        1           0.008573654   -0.000359237    0.000009017
     57        1           0.005378480    0.006733614    0.000008255
     58        6          -0.037383838    0.019361095   -0.000004683
     59        1          -0.012651252   -0.003584731   -0.000031211
     60        6           0.035359401   -0.016131257    0.000109997
     61        1           0.010021212    0.004091481   -0.000061402
     62        6          -0.017971451    0.010753742    0.000000297
     63        6          -0.069550476   -0.002429191    0.000026840
     64        6          -0.015458452   -0.008771229   -0.000040538
     65        6           0.004250807   -0.005911543    0.000040574
     66        6           0.010479488    0.000090060    0.000016796
     67        6           0.005919496    0.004517950   -0.000041703
     68        1           0.004107280   -0.007222127   -0.000010366
     69        1           0.004920655    0.006978868   -0.000014094
     70        1          -0.004648156    0.007216848   -0.000012164
     71        1          -0.008573294    0.000358598    0.000009000
     72        1          -0.005378140   -0.006734241    0.000008265
 -------------------------------------------------------------------
 Cartesian Forces:  Max     0.083208680 RMS     0.025047266

 GradGradGradGradGradGradGradGradGradGradGradGradGradGradGradGradGradGrad
 Berny optimization.
 Internal  Forces:  Max     0.099744870 RMS     0.019296304
 Search for a local minimum.
 Step number   1 out of a maximum of  396
 All quantities printed in internal units (Hartrees-Bohrs-Radians)
 Mixed Optimization -- RFO/linear search
 Second derivative matrix not updated -- first step.
 ITU=  0
 DSYEVD returned Info=         316 IAlg= 4 N=   210 NDim=   210 NE2=    37697546 trying DSYEV.
     Eigenvalues ---    0.00230   0.00230   0.00230   0.00230   0.00230
     Eigenvalues ---    0.00230   0.00230   0.00230   0.01291   0.01354
     Eigenvalues ---    0.01356   0.01438   0.01510   0.01510   0.01510
     Eigenvalues ---    0.01510   0.01523   0.01523   0.01541   0.01541
     Eigenvalues ---    0.01541   0.01541   0.01563   0.01563   0.01896
     Eigenvalues ---    0.01916   0.01924   0.01962   0.01968   0.01968
     Eigenvalues ---    0.02012   0.02013   0.02013   0.02019   0.02024
     Eigenvalues ---    0.02077   0.02077   0.02125   0.02125   0.02129
     Eigenvalues ---    0.02129   0.02147   0.02147   0.02152   0.02152
     Eigenvalues ---    0.02153   0.02153   0.02154   0.02154   0.02154
     Eigenvalues ---    0.02154   0.02155   0.02155   0.02155   0.02155
     Eigenvalues ---    0.02156   0.02156   0.02157   0.02157   0.02165
     Eigenvalues ---    0.02165   0.02169   0.02169   0.02381   0.02382
     Eigenvalues ---    0.02707   0.02707   0.02707   0.02707   0.04528
     Eigenvalues ---    0.04528   0.09448   0.09448   0.10309   0.10309
     Eigenvalues ---    0.10309   0.10309   0.10309   0.10309   0.11333
     Eigenvalues ---    0.11333   0.11333   0.11333   0.16000   0.16000
     Eigenvalues ---    0.16000   0.16000   0.16000   0.16000   0.16000
     Eigenvalues ---    0.16000   0.16000   0.16000   0.16000   0.16000
     Eigenvalues ---    0.16000   0.16000   0.16000   0.16000   0.16000
     Eigenvalues ---    0.16000   0.16000   0.16000   0.16000   0.16000
     Eigenvalues ---    0.16000   0.16000   0.16000   0.16000   0.16000
     Eigenvalues ---    0.16000   0.22000   0.22000   0.22000   0.22000
     Eigenvalues ---    0.22000   0.22000   0.22000   0.22000   0.22000
     Eigenvalues ---    0.22000   0.22000   0.22000   0.22000   0.22000
     Eigenvalues ---    0.22000   0.22000   0.23486   0.23486   0.23492
     Eigenvalues ---    0.23492   0.25000   0.25000   0.25000   0.25000
     Eigenvalues ---    0.25000   0.25000   0.25000   0.25000   0.25000
[...]
                 (A) (A) (A) (A) (A) (A) (A) (A) (A) (A) (A) (A)
                 (A) (A) (A) (A) (A) (A) (A) (A) (A) (A) (A) (A)
                 (A) (A) (A) (A) (A) (A) (A) (A) (A) (A) (A) (A)
                 (A) (A) (A)
 The electronic state is 1-A.
 Alpha  occ. eigenvalues --  -19.22251 -19.22251 -14.33154 -14.33154 -10.28555
 Alpha  occ. eigenvalues --  -10.28555 -10.25014 -10.25013 -10.22431 -10.22430
 Alpha  occ. eigenvalues --  -10.21046 -10.21045 -10.21010 -10.21010 -10.20903
 Alpha  occ. eigenvalues --  -10.20903 -10.20732 -10.20732 -10.20029 -10.20029
 Alpha  occ. eigenvalues --  -10.20005 -10.20004 -10.19965 -10.19965 -10.19910
 Alpha  occ. eigenvalues --  -10.19910 -10.19831 -10.19831 -10.19577 -10.19577
 Alpha  occ. eigenvalues --  -10.19019 -10.19019 -10.18862 -10.18862 -10.18791
 Alpha  occ. eigenvalues --  -10.18791 -10.18754 -10.18754 -10.18716 -10.18716
 Alpha  occ. eigenvalues --  -10.18660 -10.18660 -10.18618 -10.18618  -1.12711
 Alpha  occ. eigenvalues --   -1.12618  -0.92875  -0.92796  -0.86930  -0.86651
 Alpha  occ. eigenvalues --   -0.86310  -0.85329  -0.85203  -0.81719  -0.80890
 Alpha  occ. eigenvalues --   -0.80765  -0.78574  -0.77028  -0.76324  -0.75495
 Alpha  occ. eigenvalues --   -0.75361  -0.75137  -0.74151  -0.74129  -0.72821
 Alpha  occ. eigenvalues --   -0.71855  -0.70170  -0.67952  -0.64447  -0.64336
 Alpha  occ. eigenvalues --   -0.62951  -0.61958  -0.61822  -0.61380  -0.60436
 Alpha  occ. eigenvalues --   -0.60027  -0.59936  -0.59455  -0.58309  -0.57307
 Alpha  occ. eigenvalues --   -0.56082  -0.55255  -0.54811  -0.54498  -0.52391
 Alpha  occ. eigenvalues --   -0.52326  -0.51727  -0.51044  -0.50315  -0.48960
 Alpha  occ. eigenvalues --   -0.48237  -0.47268  -0.47205  -0.46961  -0.46949
 Alpha  occ. eigenvalues --   -0.46836  -0.46071  -0.46028  -0.45542  -0.45267
 Alpha  occ. eigenvalues --   -0.44107  -0.43915  -0.43306  -0.42939  -0.42802
 Alpha  occ. eigenvalues --   -0.42614  -0.42234  -0.42024  -0.41706  -0.41455
 Alpha  occ. eigenvalues --   -0.41290  -0.41103  -0.39784  -0.38697  -0.38448
 Alpha  occ. eigenvalues --   -0.38323  -0.38211  -0.38158  -0.37184  -0.37120
 Alpha  occ. eigenvalues --   -0.36120  -0.36073  -0.36004  -0.35681  -0.35600
 Alpha  occ. eigenvalues --   -0.35498  -0.34747  -0.34739  -0.34362  -0.33917
 Alpha  occ. eigenvalues --   -0.33410  -0.33293  -0.33280  -0.31970  -0.30340
 Alpha  occ. eigenvalues --   -0.30140  -0.29362  -0.28834  -0.28790  -0.26047
 Alpha  occ. eigenvalues --   -0.25945  -0.25916  -0.25691  -0.24752  -0.24747
 Alpha  occ. eigenvalues --   -0.23727  -0.21770  -0.20369  -0.18251
 Alpha virt. eigenvalues --   -0.08471  -0.06020  -0.05463  -0.02344  -0.00795
 Alpha virt. eigenvalues --   -0.00768   0.00358   0.00435   0.00788   0.02253
 Alpha virt. eigenvalues --    0.02516   0.04302   0.06278   0.08650   0.08678
 Alpha virt. eigenvalues --    0.09374   0.09459   0.09602   0.09641   0.09956
 Alpha virt. eigenvalues --    0.09965   0.10995   0.11756   0.11954   0.11989
 Alpha virt. eigenvalues --    0.12996   0.13583   0.13924   0.15030   0.15288
 Alpha virt. eigenvalues --    0.15393   0.15749   0.16297   0.16365   0.16550
 Alpha virt. eigenvalues --    0.16601   0.16746   0.16815   0.17505   0.17639
 Alpha virt. eigenvalues --    0.17905   0.18033   0.18444   0.18693   0.18949
 Alpha virt. eigenvalues --    0.19909   0.20531   0.20988   0.21126   0.21863
 Alpha virt. eigenvalues --    0.23362   0.23570   0.24143   0.25035   0.25264
 Alpha virt. eigenvalues --    0.25913   0.26697   0.26868   0.27767   0.28703
 Alpha virt. eigenvalues --    0.28837   0.29176   0.29276   0.30140   0.30234
 Alpha virt. eigenvalues --    0.30441   0.30627   0.31210   0.31486   0.31539
 Alpha virt. eigenvalues --    0.32153   0.32902   0.33687   0.34454   0.34888
 Alpha virt. eigenvalues --    0.35678   0.35829   0.37133   0.38303   0.39323
 Alpha virt. eigenvalues --    0.39482   0.40347   0.40451   0.42176   0.42896
 Alpha virt. eigenvalues --    0.45163   0.45662   0.45819   0.46421   0.48014
 Alpha virt. eigenvalues --    0.49275   0.49447   0.49655   0.50356   0.50377
 Alpha virt. eigenvalues --    0.50596   0.50865   0.51593   0.52057   0.52233
 Alpha virt. eigenvalues --    0.52583   0.52812   0.53557   0.53626   0.53940
 Alpha virt. eigenvalues --    0.54281   0.54424   0.54621   0.54887   0.55393
 Alpha virt. eigenvalues --    0.55733   0.55794   0.55854   0.56198   0.56299
 Alpha virt. eigenvalues --    0.56568   0.56968   0.57085   0.57272   0.57337
 Alpha virt. eigenvalues --    0.57744   0.58173   0.58174   0.58407   0.58427
 Alpha virt. eigenvalues --    0.58688   0.58868   0.58947   0.58974   0.59074
 Alpha virt. eigenvalues --    0.59214   0.59462   0.59563   0.60145   0.60392
 Alpha virt. eigenvalues --    0.60474   0.60492   0.60766   0.60911   0.60932
 Alpha virt. eigenvalues --    0.61268   0.61678   0.61884   0.62021   0.62028
 Alpha virt. eigenvalues --    0.62086   0.62479   0.62505   0.62599   0.63352
 Alpha virt. eigenvalues --    0.63565   0.63624   0.63995   0.64413   0.64768
 Alpha virt. eigenvalues --    0.64925   0.65400   0.66189   0.66228   0.66790
 Alpha virt. eigenvalues --    0.66966   0.67394   0.68502   0.68686   0.70341
 Alpha virt. eigenvalues --    0.70593   0.71173   0.71548   0.71836   0.72957
 Alpha virt. eigenvalues --    0.75299   0.75842   0.76434   0.76996   0.77106
 Alpha virt. eigenvalues --    0.77577   0.77936   0.78108   0.79277   0.79986
 Alpha virt. eigenvalues --    0.80686   0.81513   0.82332   0.82360   0.82532
 Alpha virt. eigenvalues --    0.82857   0.82857   0.83056   0.83156   0.83194
 Alpha virt. eigenvalues --    0.83647   0.83752   0.84218   0.84241   0.84550
 Alpha virt. eigenvalues --    0.84661   0.85017   0.85247   0.86285   0.86667
 Alpha virt. eigenvalues --    0.86734   0.87875   0.88091   0.90159   0.90168
 Alpha virt. eigenvalues --    0.90325   0.90416   0.90496   0.90829   0.90871
 Alpha virt. eigenvalues --    0.91019   0.92152   0.92532   0.92571   0.92594
 Alpha virt. eigenvalues --    0.93157   0.94050   0.94161   0.94276   0.94343
 Alpha virt. eigenvalues --    0.94486   0.95192   0.96298   0.96561   0.96566
 Alpha virt. eigenvalues --    0.98619   0.98634   0.98862   0.99806   1.00900
 Alpha virt. eigenvalues --    1.01336   1.01697   1.02027   1.02042   1.02834
 Alpha virt. eigenvalues --    1.03172   1.04693   1.06393   1.06735   1.07052
 Alpha virt. eigenvalues --    1.07598   1.08400   1.09048   1.09648   1.10227
 Alpha virt. eigenvalues --    1.11104   1.11797   1.13461   1.13479   1.15072
 Alpha virt. eigenvalues --    1.15510   1.15596   1.16904   1.17395   1.17536
 Alpha virt. eigenvalues --    1.18634   1.18893   1.19077   1.19233   1.19656
 Alpha virt. eigenvalues --    1.20184   1.21734   1.22690   1.22856   1.23608
 Alpha virt. eigenvalues --    1.24186   1.24569   1.25007   1.25380   1.25632
 Alpha virt. eigenvalues --    1.26601   1.26700   1.27238   1.27761   1.28090
 Alpha virt. eigenvalues --    1.29168   1.29412   1.31132   1.31741   1.32455
 Alpha virt. eigenvalues --    1.33823   1.34006   1.34206   1.34208   1.34476
 Alpha virt. eigenvalues --    1.37271   1.37843   1.37893   1.38813   1.39738
 Alpha virt. eigenvalues --    1.42356   1.42358   1.42428   1.42450   1.43299
 Alpha virt. eigenvalues --    1.43559   1.43685   1.43896   1.44053   1.44482
 Alpha virt. eigenvalues --    1.44589   1.45331   1.45746   1.46055   1.46544
 Alpha virt. eigenvalues --    1.46610   1.46858   1.47062   1.47758   1.48014
 Alpha virt. eigenvalues --    1.48061   1.48418   1.48430   1.48534   1.48568
 Alpha virt. eigenvalues --    1.49579   1.49582   1.50317   1.50319   1.51577
 Alpha virt. eigenvalues --    1.51591   1.52640   1.52754   1.55296   1.55513
 Alpha virt. eigenvalues --    1.55798   1.56639   1.56968   1.59812   1.60427
 Alpha virt. eigenvalues --    1.64871   1.64957   1.65105   1.69578   1.73379
 Alpha virt. eigenvalues --    1.75035   1.77142   1.77725   1.77749   1.77988
 Alpha virt. eigenvalues --    1.78165   1.78225   1.78619   1.78983   1.79104
 Alpha virt. eigenvalues --    1.80163   1.80333   1.80552   1.81896   1.82146
 Alpha virt. eigenvalues --    1.82318   1.82579   1.85466   1.85773   1.86456
 Alpha virt. eigenvalues --    1.86580   1.87241   1.88590   1.88896   1.88910
 Alpha virt. eigenvalues --    1.89052   1.89628   1.90135   1.90259   1.90317
 Alpha virt. eigenvalues --    1.90644   1.91534   1.91883   1.92637   1.92762
 Alpha virt. eigenvalues --    1.93667   1.96039   1.96105   1.97218   1.97346
 Alpha virt. eigenvalues --    1.97860   1.98142   1.98159   1.98208   1.99902
 Alpha virt. eigenvalues --    2.00390   2.01084   2.01947   2.02232   2.04082
 Alpha virt. eigenvalues --    2.04100   2.04747   2.05277   2.05765   2.05868
 Alpha virt. eigenvalues --    2.06454   2.07396   2.08193   2.10307   2.10570
 Alpha virt. eigenvalues --    2.12353   2.12556   2.12846   2.13303   2.14151
 Alpha virt. eigenvalues --    2.14442   2.14723   2.15111   2.15212   2.15660
 Alpha virt. eigenvalues --    2.16314   2.16474   2.16595   2.16649   2.17119
 Alpha virt. eigenvalues --    2.19783   2.20649   2.21307   2.21639   2.22533
 Alpha virt. eigenvalues --    2.22588   2.22939   2.23050   2.23570   2.24126
 Alpha virt. eigenvalues --    2.24478   2.25958   2.26131   2.28342   2.28481
 Alpha virt. eigenvalues --    2.28511   2.28871   2.29898   2.30143   2.30319
 Alpha virt. eigenvalues --    2.30410   2.31521   2.31557   2.31811   2.32118
 Alpha virt. eigenvalues --    2.32593   2.33169   2.35171   2.35738   2.37056
 Alpha virt. eigenvalues --    2.37925   2.38621   2.43459   2.45292   2.46317
 Alpha virt. eigenvalues --    2.47472   2.48051   2.48920   2.50236   2.50907
 Alpha virt. eigenvalues --    2.51378   2.52086   2.53136   2.53766   2.54125
 Alpha virt. eigenvalues --    2.54411   2.55202   2.58434   2.58453   2.59339
 Alpha virt. eigenvalues --    2.59471   2.59605   2.61346   2.62046   2.62130
 Alpha virt. eigenvalues --    2.63534   2.63542   2.64481   2.65163   2.65177
 Alpha virt. eigenvalues --    2.65189   2.66046   2.66518   2.69013   2.69589
 Alpha virt. eigenvalues --    2.70162   2.70563   2.71676   2.72156   2.72590
 Alpha virt. eigenvalues --    2.72909   2.74307   2.74464   2.75585   2.75619
 Alpha virt. eigenvalues --    2.75810   2.75833   2.76525   2.76806   2.77751
 Alpha virt. eigenvalues --    2.78851   2.80408   2.81060   2.81412   2.83906
 Alpha virt. eigenvalues --    2.84344   2.85456   2.85464   2.93920   2.94384
 Alpha virt. eigenvalues --    2.94684   2.95820   2.97371   2.97519   3.00202
 Alpha virt. eigenvalues --    3.00484   3.01534   3.02580   3.12757   3.13607
 Alpha virt. eigenvalues --    3.16849   3.18531   3.21450   3.23221   3.25248
 Alpha virt. eigenvalues --    3.28342   3.29686   3.38647   3.41425   3.42184
 Alpha virt. eigenvalues --    3.42698   3.44414   3.55484   4.03605   4.04270
 Alpha virt. eigenvalues --    4.06991   4.07027   4.08177   4.08468   4.08877
 Alpha virt. eigenvalues --    4.08903   4.10214   4.10285   4.10844   4.10858
 Alpha virt. eigenvalues --    4.11590   4.11799   4.12133   4.12327   4.13085
 Alpha virt. eigenvalues --    4.14249   4.19611   4.20217   4.21065   4.22187
 Alpha virt. eigenvalues --    4.29761   4.30716   4.32037   4.32043   4.33328
 Alpha virt. eigenvalues --    4.33354   4.37530   4.39123   4.42706   4.44326
 Alpha virt. eigenvalues --    4.47384   4.48511   4.50553   4.57726   4.58863
 Alpha virt. eigenvalues --    4.71138   4.71225   4.71307   4.72734   4.80859
 Alpha virt. eigenvalues --    4.90147   4.99880
          Condensed to atoms (all electrons):
 Mulliken atomic charges:
              1
     1  C    0.228161
     2  C    0.134390
     3  C    0.147080
     4  C    0.147080
     5  C    0.134390
     6  C    0.228162
     7  O   -0.545027
     8  N   -0.571972
     9  C    0.560090
    10  O   -0.545027
    11  N   -0.571972
    12  C    0.560090
    13  C   -0.201685
    14  H    0.151857
    15  C   -0.166271
    16  H    0.164959
    17  C   -0.172994
    18  C   -0.130947
    19  C    0.171699
    20  C   -0.124999
    21  H    0.136036
    22  C   -0.188899
    23  C   -0.131227
    24  H    0.137586
    25  H    0.136058
    26  H    0.133627
    27  H    0.136645
    28  C   -0.201685
    29  H    0.151857
    30  C   -0.166271
    31  H    0.164959
    32  C   -0.172995
    33  C   -0.130947
    34  C    0.171700
    35  C   -0.124995
    36  H    0.136036
    37  C   -0.188900
    38  C   -0.131226
    39  H    0.137586
    40  H    0.136058
    41  H    0.133627
    42  H    0.136644
    43  C   -0.171576
    44  H    0.157861
    45  C   -0.205511
    46  H    0.149622
    47  C   -0.195206
    48  C    0.180439
    49  C   -0.178256
    50  C   -0.131891
    51  C   -0.128707
    52  C   -0.130778
    53  H    0.126490
    54  H    0.135643
    55  H    0.129665
    56  H    0.129023
    57  H    0.129015
    58  C   -0.171576
    59  H    0.157861
    60  C   -0.205511
    61  H    0.149622
    62  C   -0.195206
    63  C    0.180439
    64  C   -0.178256
    65  C   -0.131891
    66  C   -0.128707
    67  C   -0.130778
    68  H    0.126490
    69  H    0.135643
    70  H    0.129665
    71  H    0.129023
    72  H    0.129015
 Sum of Mulliken atomic charges =   0.00000
 Mulliken charges with hydrogens summed into heavy atoms:
              1
     1  C    0.228161
     2  C    0.134390
     3  C    0.147080
     4  C    0.147080
     5  C    0.134390
     6  C    0.228162
     7  O   -0.545027
     8  N   -0.571972
     9  C    0.560090
    10  O   -0.545027
    11  N   -0.571972
    12  C    0.560090
    13  C   -0.049828
    15  C   -0.001312
    17  C   -0.039367
    18  C    0.005089
    19  C    0.171699
    20  C    0.011060
    22  C   -0.051313
    23  C    0.005418
    28  C   -0.049828
    30  C   -0.001312
    32  C   -0.039369
    33  C    0.005089
    34  C    0.171700
    35  C    0.011063
    37  C   -0.051315
    38  C    0.005418
    43  C   -0.013716
    45  C   -0.055889
    47  C   -0.068717
    48  C    0.180439
    49  C   -0.042613
    50  C   -0.002226
    51  C    0.000315
    52  C   -0.001762
    58  C   -0.013716
    60  C   -0.055889
    62  C   -0.068717
    63  C    0.180439
    64  C   -0.042613
    65  C   -0.002226
    66  C    0.000315
    67  C   -0.001762
 Sum of Mulliken charges with hydrogens summed into heavy atoms =   0.00000
 Electronic spatial extent (au):  <R**2>=          41916.8708
 Charge=              0.0000 electrons
 Dipole moment (field-independent basis, Debye):
    X=              0.0001    Y=              0.0000    Z=             -0.0001  Tot=              0.0001
 Quadrupole moment (field-independent basis, Debye-Ang):
   XX=           -180.0559   YY=           -224.2692   ZZ=           -264.0376
   XY=             -2.2067   XZ=              0.0000   YZ=              0.0003
 Traceless Quadrupole moment (field-independent basis, Debye-Ang):
   XX=             42.7317   YY=             -1.4816   ZZ=            -41.2501
   XY=             -2.2067   XZ=              0.0000   YZ=              0.0003
 Octapole moment (field-independent basis, Debye-Ang**2):
  XXX=              0.0118  YYY=              0.0001  ZZZ=              0.0001  XYY=              0.0002
  XXY=              0.0001  XXZ=             -0.0133  XZZ=              0.0009  YZZ=              0.0000
  YYZ=             -0.0056  XYZ=             -0.0163
 Hexadecapole moment (field-independent basis, Debye-Ang**3):
 XXXX=         -28619.6128 YYYY=         -19898.6961 ZZZZ=           -266.7458 XXXY=            122.0904
 XXXZ=             -0.0028 YYYX=              5.4391 YYYZ=              0.0035 ZZZX=             -0.0050
 ZZZY=              0.0069 XXYY=          -8679.0309 XXZZ=          -6558.7223 YYZZ=          -4130.0398
 XXYZ=              0.0186 YYXZ=             -0.0023 ZZXY=             -8.2288
 N-N= 4.260715526701D+03 E-N=-1.269877824923D+04  KE= 1.783876033856D+03
 1\1\GINC-TRESTLES-4-29\FOpt\RB3LYP\6-31G(d)\C40H28N2O2\CCOLLINS\28-Feb
 -2012\0\\# opt b3lyp/6-31g(d) geom=connectivity\\24a_TON_2J_24a_DFT\\0
 ,1\C,-0.0555727989,0.0346079684,-0.0002028449\C,1.3536628583,-0.034036
 896,-0.0002024903\C,-0.8240381713,1.2049384127,-0.0002062378\C,2.18618
 27587,1.1144873466,-0.0001993946\C,0.0084817763,2.3534625151,-0.000209
 3228\C,1.4177175046,2.2848180305,-0.0002032557\O,-0.516258098,-1.25907
 77008,-0.0002036155\N,1.7376705422,-1.3635176439,-0.000202896\C,0.6229
 991544,-2.0397632554,-0.0001984293\O,1.8784029677,3.5785033335,-0.0002
 06434\N,-0.3755259322,3.6829433041,-0.0002182312\C,0.7391450827,4.3591
 892218,-0.0002042772\C,0.415948153,-3.4665918102,-0.0001893847\H,-0.62
 21497723,-3.7845075429,-0.0001723105\C,1.4391574632,-4.348630193,-0.00
 02115116\H,2.4461798348,-3.9350379797,-0.0001931173\C,0.1312904236,-6.
 511624721,-0.0000294354\C,0.1125668944,-7.9017791023,-0.000044265\C,1.
 3517890822,-5.8064431966,-0.0002382812\C,1.309721704,-8.6257177038,-0.
 0002898503\H,-0.8391420739,-8.4263628195,0.0001124034\C,2.5463919588,-
 6.5515739167,-0.0005122207\C,2.5275041839,-7.944359578,-0.0005266717\H
 ,3.4969241641,-6.0235884073,-0.0006901469\H,1.2902368179,-9.712048996,
 -0.0003091604\H,-0.8090474667,-5.9682859101,0.0001151604\H,3.462920445
 7,-8.4970618766,-0.0007172927\C,0.9461969067,5.7860175089,-0.000202491
 9\H,1.9842950549,6.1039324712,-0.0002145271\C,-0.07701191,6.6680564667
 ,-0.0001988023\H,-1.084034513,6.2544647988,-0.0001529895\C,1.230856317
 7,8.8310503547,-0.0000532631\C,1.249580753,10.2212047237,-0.0000698007
 \C,0.0103572243,8.125869521,-0.000229413\C,0.0524261639,10.9451434343,
 -0.0002845951\H,2.2012899618,10.7457879751,0.000061306\C,-1.1842452706
 ,8.8710008847,-0.0004728861\C,-1.1653568467,10.2637865438,-0.000488961
 9\H,-2.134777798,8.3430159616,-0.0006255008\H,0.0719103203,12.03140028
 22,-0.0003053969\H,2.1711938767,8.2877110575,0.000066841\H,-2.10077270
 07,10.8164893875,-0.0006555497\C,-2.2676244362,1.3332039515,-0.0002051
 066\H,-2.6082672111,2.3651682907,-0.0002653891\C,-3.1678301445,0.32280
 23409,-0.0001593133\H,-2.8022558461,-0.7007028471,-0.0001059072\C,-5.4
 079651431,-0.7160484842,-0.0002494912\C,-4.6255362521,0.4549286588,-0.
 0001664268\C,-5.2992581486,1.693481067,-0.0001013723\C,-6.6887998197,1
 .7512280267,-0.0001227061\C,-7.4485800583,0.5767632785,-0.0002044894\C
 ,-6.7998833683,-0.6587323214,-0.000263041\H,-4.9083693104,-1.682170548
 7,-0.0003009249\H,-4.7307662073,2.6185696906,-0.0000338052\H,-7.184994
 5929,2.7183590203,-0.0000742761\H,-8.5340023324,0.6270301601,-0.000221
 2901\H,-7.3778075347,-1.5792655402,-0.0003243118\C,3.6297689652,0.9862
 218741,-0.0001919803\H,3.9704117896,-0.0457424608,-0.0002388723\C,4.52
 99747417,1.9966234346,-0.0001564875\H,4.1644005127,3.020128652,-0.0001
 175627\C,6.7701099811,3.0354741032,-0.0002473879\C,5.9876810125,1.8644
 969991,-0.0001584807\C,6.6614028816,0.6259445724,-0.00008318\C,8.05094
 45524,0.5681975576,-0.0000999377\C,8.8107248502,1.7426622662,-0.000187
 389\C,8.162028203,2.9781578887,-0.0002562878\H,6.270514197,4.001596193
 8,-0.000306789\H,6.0929109232,-0.2991440415,-0.0000116431\H,8.54713927
 58,-0.3989334633,-0.0000437406\H,9.8961471229,1.6923953366,-0.00020076
 37\H,8.7399523995,3.8986910889,-0.0003221018\\Version=AM64L-G09RevC.01
 \State=1-A\HF=-1801.0682896\RMSD=6.767e-09\RMSF=3.314e-05\Dipole=-0.00
 00013,0.0000225,-0.0000285\Quadrupole=-1.1714438,31.8398704,-30.668426
 6,0.6235502,-0.0001975,-0.0000213\PG=C01 [X(C40H28N2O2)]\\@


 There are more things in heaven and earth, Horatio,
 than are dreamt of in your philosophy.
                   -- Hamlet, Act I, Scene 5
 The chemist is a guest at the physicist's table and
 frequently dines well.
                   -- Richard Bersohn
 Job cpu time:  0 days  5 hours 28 minutes 34.3 seconds.
 File lengths (MBytes):  RWF=    325 Int=      0 D2E=      0 Chk=     35 Scr=      1
 Normal termination of Gaussian 09 at Tue Feb 28 23:50:41 2012.
