 Entering Gaussian System, Link 0=g09
 Initial command:
 /usr/local/packages/g09/l1.exe /brashear/tomlinsa/Gau-2295625.inp -scrdir=/brashear/tomlinsa/
 Entering Link 1 = /usr/local/packages/g09/l1.exe PID=   2295626.
  
 Copyright (c) 1988,1990,1992,1993,1995,1998,2003,2009,2010,
            Gaussian, Inc.  All Rights Reserved.
  
 This is part of the Gaussian(R) 09 program.  It is based on
 the Gaussian(R) 03 system (copyright 2003, Gaussian, Inc.),
 the Gaussian(R) 98 system (copyright 1998, Gaussian, Inc.),
 the Gaussian(R) 94 system (copyright 1995, Gaussian, Inc.),
 the Gaussian 92(TM) system (copyright 1992, Gaussian, Inc.),
 the Gaussian 90(TM) system (copyright 1990, Gaussian, Inc.),
 the Gaussian 88(TM) system (copyright 1988, Gaussian, Inc.),
 the Gaussian 86(TM) system (copyright 1986, Carnegie Mellon
 University), and the Gaussian 82(TM) system (copyright 1983,
 Carnegie Mellon University). Gaussian is a federally registered
 trademark of Gaussian, Inc.
  
 This software contains proprietary and confidential information,
 including trade secrets, belonging to Gaussian, Inc.
  
 This software is provided under written license and may be
 used, copied, transmitted, or stored only in accord with that
 written license.
  
 The following legend is applicable only to US Government
 contracts under FAR:
  
                    RESTRICTED RIGHTS LEGEND
  
 Use, reproduction and disclosure by the US Government is
 subject to restrictions as set forth in subparagraphs (a)
 and (c) of the Commercial Computer Software - Restricted
 Rights clause in FAR 52.227-19.
  
 Gaussian, Inc.
 340 Quinnipiac St., Bldg. 40, Wallingford CT 06492
  
  
 ---------------------------------------------------------------
 Warning -- This program may not be used in any manner that
 competes with the business of Gaussian, Inc. or will provide
 assistance to any competitor of Gaussian, Inc.  The licensee
 of this program is prohibited from giving any competitor of
 Gaussian, Inc. access to this program.  By using this program,
 the user acknowledges that Gaussian, Inc. is engaged in the
 business of creating and licensing software in the field of
 computational chemistry and represents and warrants to the
 licensee that it is not a competitor of Gaussian, Inc. and that
 it will not use this program in any manner prohibited above.
 ---------------------------------------------------------------
  

 Cite this work as:
 Gaussian 09, Revision B.01,
 M. J. Frisch, G. W. Trucks, H. B. Schlegel, G. E. Scuseria, 
 M. A. Robb, J. R. Cheeseman, G. Scalmani, V. Barone, B. Mennucci, 
 G. A. Petersson, H. Nakatsuji, M. Caricato, X. Li, H. P. Hratchian, 
 A. F. Izmaylov, J. Bloino, G. Zheng, J. L. Sonnenberg, M. Hada, 
 M. Ehara, K. Toyota, R. Fukuda, J. Hasegawa, M. Ishida, T. Nakajima, 
 Y. Honda, O. Kitao, H. Nakai, T. Vreven, J. A. Montgomery, Jr., 
 J. E. Peralta, F. Ogliaro, M. Bearpark, J. J. Heyd, E. Brothers, 
 K. N. Kudin, V. N. Staroverov, T. Keith, R. Kobayashi, J. Normand, 
 K. Raghavachari, A. Rendell, J. C. Burant, S. S. Iyengar, J. Tomasi, 
 M. Cossi, N. Rega, J. M. Millam, M. Klene, J. E. Knox, J. B. Cross, 
 V. Bakken, C. Adamo, J. Jaramillo, R. Gomperts, R. E. Stratmann, 
 O. Yazyev, A. J. Austin, R. Cammi, C. Pomelli, J. W. Ochterski, 
 R. L. Martin, K. Morokuma, V. G. Zakrzewski, G. A. Voth, 
 P. Salvador, J. J. Dannenberg, S. Dapprich, A. D. Daniels, 
 O. Farkas, J. B. Foresman, J. V. Ortiz, J. Cioslowski, 
 and D. J. Fox, Gaussian, Inc., Wallingford CT, 2010.
 
 ******************************************
 Gaussian 09:  EM64L-G09RevB.01 12-Aug-2010
                 8-Nov-2011 
 ******************************************
 %nprocshared=48
 Will use up to   48 processors via shared memory.
 %mem=372GB
 %chk=TON_B25i_mPW1PW91_6_31d_n3_TDDFT.chk
 ----------------------
 # td mpw1pw91/6-31g(d)
 ----------------------
 1/38=1/1;
 2/12=2,17=6,18=5,40=1/2;
 3/5=1,6=6,7=1,11=2,16=1,25=1,30=1,74=-7/1,2,8,3;
 4//1;
 5/5=2,38=5/2;
 8/6=1,10=2/1;
 9/42=1/14;
 6/7=2,8=2,9=2,10=2/1;
 99/5=1,9=1/99;
 --------------------------------
 TON_B25i_mPW1PW91_6_31d_n2_TDDFT
 --------------------------------
 Symbolic Z-matrix:
 Charge =  0 Multiplicity = 1
 C                     20.28656   5.45407  -0.2988 
 O                     19.07531   6.05141  -0.44381 
 N                     20.2818   4.18246  -0.10847 
 C                     18.18855   5.02536  -0.33078 
 C                     18.9373   3.85106  -0.12049 
 C                     16.80697   5.08718  -0.4041 
 C                     18.30536   2.61402   0.0351 
 C                     16.17429   3.8515   -0.24881 
 C                     16.9267   2.67393  -0.03802 
 N                     14.8392   3.5252   -0.26196 
 O                     16.04439   1.64926   0.07405 
 C                     14.81213   2.23829  -0.07127 
 C                     13.6464   1.40985  -0.00318 
 H                     12.71302   1.94855  -0.12636 
 C                     13.69061   0.07266   0.19581 
 H                     14.66684  -0.38784   0.30995 
 C                     12.56375  -0.81149   0.2734 
 C                     12.58214  -2.18789   0.4801 
 S                     10.94116  -0.23146   0.10799 
 C                     11.283   -2.76431   0.5027 
 C                     10.27756  -1.82417   0.30455 
 H                     21.14292   6.10873  -0.35755 
 C                     8.8466   -1.94451   0.2504 
 C                     8.10834  -3.07856   0.18952 
 H                     8.29943  -1.00461   0.24583 
 H                     8.5419   -4.06759   0.14998 
 C                     13.82739  -3.0005    0.67038 
 H                     14.73414  -2.40463   0.56581 
 H                     13.85217  -3.45804   1.66541 
 H                     13.88421  -3.81151  -0.06275 
 C                     11.0383  -4.22262   0.74197 
 H                     10.25918  -4.37563   1.49509 
 H                     10.71784  -4.73598  -0.17218 
 H                     11.94092  -4.7235    1.09564 
 C                     6.67591  -3.07365   0.14521 
 O                     6.01888  -1.87046   0.19222 
 N                     5.90163  -4.11745   0.06237 
 C                     4.70345  -2.19745   0.13188 
 C                     4.62729  -3.60545   0.05005 
 C                     3.61817  -1.34135   0.14762 
 C                     3.38808  -4.25074  -0.0256 
 C                     2.37956  -1.98699   0.07317 
 C                     2.30283  -3.39546  -0.01048 
 N                     1.10601  -1.47429   0.06515 
 O                     0.98738  -3.72203  -0.06892 
 C                     0.33019  -2.51675  -0.01829 
 C                    -1.10012  -2.51603  -0.05901 
 H                    -1.54415  -1.5277   -0.00709 
 C                    -1.84534  -3.64141  -0.15444 
 H                    -1.31981  -4.58969  -0.20577 
 C                    -3.27702  -3.71092  -0.19463 
 C                    -4.06514  -4.85262  -0.31311 
 S                    -4.25914  -2.28949  -0.09152 
 C                    -5.45771  -4.56937  -0.32131 
 C                    -3.52482  -6.24674  -0.42426 
 C                    -5.72774  -3.20914  -0.20983 
 C                    -6.50913  -5.63081  -0.43133 
 H                    -3.84873  -6.72114  -1.3565 
 H                    -2.43528  -6.27404  -0.40865 
 H                    -3.87762  -6.87427   0.40103 
 C                    -6.95976  -2.47124  -0.17123 
 H                    -7.2093   -5.5891    0.40976 
 H                    -7.09411  -5.52406  -1.35169 
 H                    -6.06715  -6.62808  -0.44012 
 C                    -8.22297  -2.94388  -0.29917 
 H                    -6.85438  -1.39895  -0.02308 
 H                    -8.45395  -3.98649  -0.4619 
 C                    -9.38041  -2.10141  -0.23685 
 O                    -9.20831  -0.75561  -0.03505 
 N                    -10.62003  -2.48344  -0.35274 
 C                    -10.46701  -0.24852  -0.02407 
 C                    -11.35348  -1.3295   -0.22283 
 C                    -10.84574   1.07022   0.14754 
 C                    -12.73669  -1.12046  -0.25975 
 C                    -12.22816   1.27868   0.11086 
 C                    -13.11543   0.19698  -0.08802 
 N                    -12.96092   2.43242   0.24276 
 O                    -14.37358   0.70368  -0.07509 
 C                    -14.20146   2.05204   0.12846 
 C                    -15.36292   2.88464   0.19446 
 H                    -15.14874   3.93537   0.35702 
 C                    -16.62532   2.41396   0.06709 
 H                    -16.74962   1.34724  -0.0927 
 C                    -17.8334   3.1831    0.12284 
 C                    -19.13617   2.71812   0.00493 
 S                    -17.81284   4.90335   0.35814 
 C                    -20.11044   3.75432   0.10642 
 C                    -19.51796   1.28295  -0.19298 
 C                    -19.54265   5.00326   0.28652 
 C                    -21.58477   3.48982   0.06458 
 H                    -20.17799   1.16937  -1.05903 
 H                    -18.654    0.63736  -0.35298 
 H                    -20.05856   0.89481   0.67786 
 C                    -20.15266   6.31418   0.43772 
 H                    -22.13177   4.22193   0.66385 
 H                    -21.98135   3.53812  -0.95686 
 H                    -21.81686   2.49491   0.45319 
 C                    -21.33958   6.70716  -0.04291 
 H                    -19.55769   7.04271   0.98553 
 H                    -21.97099   6.06665  -0.64685 
 Cl                    15.94866   6.54974  -0.66269 
 Cl                    19.16634   1.15104   0.29357 
 Cl                    3.23217  -5.95829  -0.12747 
 Cl                    3.77485   0.36497   0.25008 
 Cl                   -13.86454  -2.39455  -0.4975 
 Cl                   -9.71721   2.34241   0.38567 
 H                    -21.69915   7.7136    0.14063 
 
 Stoichiometry    C54H32Cl6N6O6S3
 Framework group  C1[X(C54H32Cl6N6O6S3)]
 Deg. of freedom   315
 Full point group                 C1      NOp   1
 Largest Abelian subgroup         C1      NOp   1
 Largest concise Abelian subgroup C1      NOp   1
                         Standard orientation:                         
 ---------------------------------------------------------------------
 Center     Atomic      Atomic             Coordinates (Angstroms)
 Number     Number       Type             X           Y           Z
 ---------------------------------------------------------------------
      1          6           0       20.286562    5.454066   -0.298795
      2          8           0       19.075305    6.051406   -0.443814
      3          7           0       20.281799    4.182464   -0.108466
      4          6           0       18.188553    5.025361   -0.330780
      5          6           0       18.937301    3.851056   -0.120489
      6          6           0       16.806974    5.087185   -0.404100
      7          6           0       18.305362    2.614023    0.035096
      8          6           0       16.174286    3.851498   -0.248814
      9          6           0       16.926696    2.673926   -0.038022
     10          7           0       14.839205    3.525201   -0.261955
     11          8           0       16.044391    1.649261    0.074046
     12          6           0       14.812126    2.238287   -0.071270
     13          6           0       13.646401    1.409854   -0.003179
     14          1           0       12.713017    1.948547   -0.126360
     15          6           0       13.690611    0.072659    0.195805
     16          1           0       14.666839   -0.387836    0.309948
     17          6           0       12.563746   -0.811491    0.273401
     18          6           0       12.582140   -2.187887    0.480099
     19         16           0       10.941160   -0.231463    0.107993
     20          6           0       11.283002   -2.764307    0.502703
     21          6           0       10.277558   -1.824172    0.304551
     22          1           0       21.142923    6.108733   -0.357550
     23          6           0        8.846599   -1.944509    0.250404
     24          6           0        8.108345   -3.078559    0.189522
     25          1           0        8.299434   -1.004610    0.245827
     26          1           0        8.541900   -4.067588    0.149977
     27          6           0       13.827393   -3.000503    0.670376
     28          1           0       14.734143   -2.404633    0.565813
     29          1           0       13.852168   -3.458042    1.665407
     30          1           0       13.884212   -3.811510   -0.062754
     31          6           0       11.038296   -4.222615    0.741965
     32          1           0       10.259175   -4.375625    1.495089
     33          1           0       10.717844   -4.735977   -0.172180
     34          1           0       11.940924   -4.723503    1.095642
     35          6           0        6.675914   -3.073651    0.145205
     36          8           0        6.018883   -1.870462    0.192221
     37          7           0        5.901633   -4.117454    0.062370
     38          6           0        4.703455   -2.197446    0.131884
     39          6           0        4.627293   -3.605452    0.050046
     40          6           0        3.618167   -1.341349    0.147624
     41          6           0        3.388081   -4.250741   -0.025601
     42          6           0        2.379561   -1.986985    0.073170
     43          6           0        2.302830   -3.395456   -0.010475
     44          7           0        1.106007   -1.474287    0.065145
     45          8           0        0.987376   -3.722033   -0.068920
     46          6           0        0.330189   -2.516751   -0.018293
     47          6           0       -1.100117   -2.516027   -0.059005
     48          1           0       -1.544149   -1.527700   -0.007089
     49          6           0       -1.845339   -3.641411   -0.154444
     50          1           0       -1.319808   -4.589690   -0.205771
     51          6           0       -3.277022   -3.710924   -0.194628
     52          6           0       -4.065144   -4.852622   -0.313112
     53         16           0       -4.259139   -2.289491   -0.091515
     54          6           0       -5.457714   -4.569374   -0.321305
     55          6           0       -3.524817   -6.246739   -0.424262
     56          6           0       -5.727741   -3.209138   -0.209831
     57          6           0       -6.509131   -5.630805   -0.431325
     58          1           0       -3.848729   -6.721137   -1.356499
     59          1           0       -2.435282   -6.274037   -0.408646
     60          1           0       -3.877619   -6.874269    0.401029
     61          6           0       -6.959758   -2.471239   -0.171225
     62          1           0       -7.209295   -5.589104    0.409759
     63          1           0       -7.094107   -5.524061   -1.351685
     64          1           0       -6.067146   -6.628077   -0.440118
     65          6           0       -8.222972   -2.943875   -0.299169
     66          1           0       -6.854381   -1.398954   -0.023078
     67          1           0       -8.453954   -3.986491   -0.461901
     68          6           0       -9.380408   -2.101414   -0.236852
     69          8           0       -9.208310   -0.755605   -0.035048
     70          7           0      -10.620035   -2.483442   -0.352741
     71          6           0      -10.467010   -0.248519   -0.024065
     72          6           0      -11.353482   -1.329501   -0.222828
     73          6           0      -10.845743    1.070224    0.147544
     74          6           0      -12.736691   -1.120461   -0.259747
     75          6           0      -12.228157    1.278676    0.110856
     76          6           0      -13.115435    0.196976   -0.088021
     77          7           0      -12.960917    2.432420    0.242757
     78          8           0      -14.373576    0.703675   -0.075088
     79          6           0      -14.201461    2.052042    0.128464
     80          6           0      -15.362919    2.884637    0.194456
     81          1           0      -15.148739    3.935371    0.357019
     82          6           0      -16.625319    2.413960    0.067093
     83          1           0      -16.749622    1.347244   -0.092702
     84          6           0      -17.833398    3.183098    0.122843
     85          6           0      -19.136173    2.718123    0.004934
     86         16           0      -17.812836    4.903352    0.358138
     87          6           0      -20.110445    3.754315    0.106416
     88          6           0      -19.517959    1.282951   -0.192984
     89          6           0      -19.542645    5.003261    0.286521
     90          6           0      -21.584765    3.489821    0.064582
     91          1           0      -20.177992    1.169374   -1.059027
     92          1           0      -18.653996    0.637364   -0.352984
     93          1           0      -20.058559    0.894806    0.677859
     94          6           0      -20.152659    6.314182    0.437716
     95          1           0      -22.131768    4.221929    0.663847
     96          1           0      -21.981345    3.538115   -0.956864
     97          1           0      -21.816862    2.494908    0.453190
     98          6           0      -21.339584    6.707160   -0.042908
     99          1           0      -19.557694    7.042711    0.985534
    100          1           0      -21.970991    6.066654   -0.646845
    101         17           0       15.948664    6.549742   -0.662693
    102         17           0       19.166345    1.151038    0.293569
    103         17           0        3.232166   -5.958294   -0.127470
    104         17           0        3.774854    0.364965    0.250082
    105         17           0      -13.864543   -2.394547   -0.497503
    106         17           0       -9.717210    2.342414    0.385674
    107          1           0      -21.699147    7.713598    0.140627
 ---------------------------------------------------------------------
 Rotational constants (GHZ):      0.0360408      0.0026406      0.0024629
 Standard basis: 6-31G(d) (6D, 7F)
 There are  1225 symmetry adapted basis functions of A   symmetry.
 Integral buffers will be    131072 words long.
 Raffenetti 2 integral format.
 Two-electron integral symmetry is turned on.
  1225 basis functions,  2444 primitive gaussians,  1225 cartesian basis functions
   298 alpha electrons      298 beta electrons
       nuclear repulsion energy     10953.7662837188 Hartrees.
 NAtoms=  107 NActive=  107 NUniq=  107 SFac= 1.00D+00 NAtFMM=   50 NAOKFM=T Big=T
 One-electron integrals computed using PRISM.
 NBasis=  1225 RedAO= T  NBF=  1225
 NBsUse=  1225 1.00D-06 NBFU=  1225
 Harris functional with IExCor=  908 diagonalized for initial guess.
 ExpMin= 1.17D-01 ExpMax= 2.52D+04 ExpMxC= 3.78D+03 IAcc=1 IRadAn=         1 AccDes= 0.00D+00
 HarFok:  IExCor=  908 AccDes= 0.00D+00 IRadAn=         1 IDoV= 1
 ScaDFX=  1.000000  1.000000  1.000000  1.000000
 FoFCou: FMM=F IPFlag=           0 FMFlag=      100000 FMFlg1=        2001
         NFxFlg=           0 DoJE=T BraDBF=F KetDBF=T FulRan=T
         Omega=  0.000000  0.000000  1.000000  0.000000  0.000000 ICntrl=     500 IOpCl=  0
         NMat0=    1 NMatS0=    1 NMatT0=    0 NMatD0=    1 NMtDS0=    0 NMtDT0=    0
         I1Cent=           4 NGrid=           0.
 Petite list used in FoFCou.
 Initial guess orbital symmetries:
       Occupied  (A) (A) (A) (A) (A) (A) (A) (A) (A) (A) (A) (A)
                 (A) (A) (A) (A) (A) (A) (A) (A) (A) (A) (A) (A)
                 (A) (A) (A) (A) (A) (A) (A) (A) (A) (A) (A) (A)
                 (A) (A) (A) (A) (A) (A) (A) (A) (A) (A) (A) (A)
                 (A) (A) (A) (A) (A) (A) (A) (A) (A) (A) (A) (A)
                 (A) (A) (A) (A) (A) (A) (A) (A) (A) (A) (A) (A)
                 (A) (A) (A) (A) (A) (A) (A) (A) (A) (A) (A) (A)
                 (A) (A) (A) (A) (A) (A) (A) (A) (A) (A) (A) (A)
                 (A) (A) (A) (A) (A) (A) (A) (A) (A) (A) (A) (A)
                 (A) (A) (A) (A) (A) (A) (A) (A) (A) (A) (A) (A)
                 (A) (A) (A) (A) (A) (A) (A) (A) (A) (A) (A) (A)
                 (A) (A) (A) (A) (A) (A) (A) (A) (A) (A) (A) (A)
                 (A) (A) (A) (A) (A) (A) (A) (A) (A) (A) (A) (A)
                 (A) (A) (A) (A) (A) (A) (A) (A) (A) (A) (A) (A)
                 (A) (A) (A) (A) (A) (A) (A) (A) (A) (A) (A) (A)
                 (A) (A) (A) (A) (A) (A) (A) (A) (A) (A) (A) (A)
                 (A) (A) (A) (A) (A) (A) (A) (A) (A) (A) (A) (A)
                 (A) (A) (A) (A) (A) (A) (A) (A) (A) (A) (A) (A)
                 (A) (A) (A) (A) (A) (A) (A) (A) (A) (A) (A) (A)
                 (A) (A) (A) (A) (A) (A) (A) (A) (A) (A) (A) (A)
                 (A) (A) (A) (A) (A) (A) (A) (A) (A) (A) (A) (A)
                 (A) (A) (A) (A) (A) (A) (A) (A) (A) (A) (A) (A)
                 (A) (A) (A) (A) (A) (A) (A) (A) (A) (A) (A) (A)
                 (A) (A) (A) (A) (A) (A) (A) (A) (A) (A) (A) (A)
                 (A) (A) (A) (A) (A) (A) (A) (A) (A) (A)
       Virtual   (A) (A) (A) (A) (A) (A) (A) (A) (A) (A) (A) (A)
                 (A) (A) (A) (A) (A) (A) (A) (A) (A) (A) (A) (A)
                 (A) (A) (A) (A) (A) (A) (A) (A) (A) (A) (A) (A)
                 (A) (A) (A) (A) (A) (A) (A) (A) (A) (A) (A) (A)
                 (A) (A) (A) (A) (A) (A) (A) (A) (A) (A) (A) (A)
                 (A) (A) (A) (A) (A) (A) (A) (A) (A) (A) (A) (A)
                 (A) (A) (A) (A) (A) (A) (A) (A) (A) (A) (A) (A)
                 (A) (A) (A) (A) (A) (A) (A) (A) (A) (A) (A) (A)
                 (A) (A) (A) (A) (A) (A) (A) (A) (A) (A) (A) (A)
                 (A) (A) (A) (A) (A) (A) (A) (A) (A) (A) (A) (A)
                 (A) (A) (A) (A) (A) (A) (A) (A) (A) (A) (A) (A)
                 (A) (A) (A) (A) (A) (A) (A) (A) (A) (A) (A) (A)
                 (A) (A) (A) (A) (A) (A) (A) (A) (A) (A) (A) (A)
                 (A) (A) (A) (A) (A) (A) (A) (A) (A) (A) (A) (A)
                 (A) (A) (A) (A) (A) (A) (A) (A) (A) (A) (A) (A)
                 (A) (A) (A) (A) (A) (A) (A) (A) (A) (A) (A) (A)
                 (A) (A) (A) (A) (A) (A) (A) (A) (A) (A) (A) (A)
                 (A) (A) (A) (A) (A) (A) (A) (A) (A) (A) (A) (A)
                 (A) (A) (A) (A) (A) (A) (A) (A) (A) (A) (A) (A)
                 (A) (A) (A) (A) (A) (A) (A) (A) (A) (A) (A) (A)
                 (A) (A) (A) (A) (A) (A) (A) (A) (A) (A) (A) (A)
                 (A) (A) (A) (A) (A) (A) (A) (A) (A) (A) (A) (A)
                 (A) (A) (A) (A) (A) (A) (A) (A) (A) (A) (A) (A)
                 (A) (A) (A) (A) (A) (A) (A) (A) (A) (A) (A) (A)
                 (A) (A) (A) (A) (A) (A) (A) (A) (A) (A) (A) (A)
                 (A) (A) (A) (A) (A) (A) (A) (A) (A) (A) (A) (A)
                 (A) (A) (A) (A) (A) (A) (A) (A) (A) (A) (A) (A)
                 (A) (A) (A) (A) (A) (A) (A) (A) (A) (A) (A) (A)
                 (A) (A) (A) (A) (A) (A) (A) (A) (A) (A) (A) (A)
                 (A) (A) (A) (A) (A) (A) (A) (A) (A) (A) (A) (A)
                 (A) (A) (A) (A) (A) (A) (A) (A) (A) (A) (A) (A)
                 (A) (A) (A) (A) (A) (A) (A) (A) (A) (A) (A) (A)
                 (A) (A) (A) (A) (A) (A) (A) (A) (A) (A) (A) (A)
                 (A) (A) (A) (A) (A) (A) (A) (A) (A) (A) (A) (A)
                 (A) (A) (A) (A) (A) (A) (A) (A) (A) (A) (A) (A)
                 (A) (A) (A) (A) (A) (A) (A) (A) (A) (A) (A) (A)
                 (A) (A) (A) (A) (A) (A) (A) (A) (A) (A) (A) (A)
                 (A) (A) (A) (A) (A) (A) (A) (A) (A) (A) (A) (A)
                 (A) (A) (A) (A) (A) (A) (A) (A) (A) (A) (A) (A)
                 (A) (A) (A) (A) (A) (A) (A) (A) (A) (A) (A) (A)
                 (A) (A) (A) (A) (A) (A) (A) (A) (A) (A) (A) (A)
                 (A) (A) (A) (A) (A) (A) (A) (A) (A) (A) (A) (A)
                 (A) (A) (A) (A) (A) (A) (A) (A) (A) (A) (A) (A)
                 (A) (A) (A) (A) (A) (A) (A) (A) (A) (A) (A) (A)
                 (A) (A) (A) (A) (A) (A) (A) (A) (A) (A) (A) (A)
                 (A) (A) (A) (A) (A) (A) (A) (A) (A) (A) (A) (A)
                 (A) (A) (A) (A) (A) (A) (A) (A) (A) (A) (A) (A)
                 (A) (A) (A) (A) (A) (A) (A) (A) (A) (A) (A) (A)
                 (A) (A) (A) (A) (A) (A) (A) (A) (A) (A) (A) (A)
                 (A) (A) (A) (A) (A) (A) (A) (A) (A) (A) (A) (A)
                 (A) (A) (A) (A) (A) (A) (A) (A) (A) (A) (A) (A)
                 (A) (A) (A) (A) (A) (A) (A) (A) (A) (A) (A) (A)
                 (A) (A) (A) (A) (A) (A) (A) (A) (A) (A) (A) (A)
                 (A) (A) (A) (A) (A) (A) (A) (A) (A) (A) (A) (A)
                 (A) (A) (A) (A) (A) (A) (A) (A) (A) (A) (A) (A)
                 (A) (A) (A) (A) (A) (A) (A) (A) (A) (A) (A) (A)
                 (A) (A) (A) (A) (A) (A) (A) (A) (A) (A) (A) (A)
                 (A) (A) (A) (A) (A) (A) (A) (A) (A) (A) (A) (A)
                 (A) (A) (A) (A) (A) (A) (A) (A) (A) (A) (A) (A)
                 (A) (A) (A) (A) (A) (A) (A) (A) (A) (A) (A) (A)
                 (A) (A) (A) (A) (A) (A) (A) (A) (A) (A) (A) (A)
                 (A) (A) (A) (A) (A) (A) (A) (A) (A) (A) (A) (A)
                 (A) (A) (A) (A) (A) (A) (A) (A) (A) (A) (A) (A)
                 (A) (A) (A) (A) (A) (A) (A) (A) (A) (A) (A) (A)
                 (A) (A) (A) (A) (A) (A) (A) (A) (A) (A) (A) (A)
                 (A) (A) (A) (A) (A) (A) (A) (A) (A) (A) (A) (A)
                 (A) (A) (A) (A) (A) (A) (A) (A) (A) (A) (A) (A)
                 (A) (A) (A) (A) (A) (A) (A) (A) (A) (A) (A) (A)
                 (A) (A) (A) (A) (A) (A) (A) (A) (A) (A) (A) (A)
                 (A) (A) (A) (A) (A) (A) (A) (A) (A) (A) (A) (A)
                 (A) (A) (A) (A) (A) (A) (A) (A) (A) (A) (A) (A)
                 (A) (A) (A) (A) (A) (A) (A) (A) (A) (A) (A) (A)
                 (A) (A) (A) (A) (A) (A) (A) (A) (A) (A) (A) (A)
                 (A) (A) (A) (A) (A) (A) (A) (A) (A) (A) (A) (A)
                 (A) (A) (A) (A) (A) (A) (A) (A) (A) (A) (A) (A)
                 (A) (A) (A) (A) (A) (A) (A) (A) (A) (A) (A) (A)
                 (A) (A) (A) (A) (A) (A) (A) (A) (A) (A) (A) (A)
                 (A) (A) (A)
 The electronic state of the initial guess is 1-A.
 Requested convergence on RMS density matrix=1.00D-08 within 128 cycles.
 Requested convergence on MAX density matrix=1.00D-06.
 Requested convergence on             energy=1.00D-06.
 No special actions if energy rises.
 Integral accuracy reduced to 1.0D-05 until final iterations.
 Initial convergence to 1.0D-05 achieved.  Increase integral accuracy.
 SCF Done:  E(RmPW1PW91) =  -6812.00449828     A.U. after   15 cycles
             Convg  =    0.5487D-08             -V/T =  2.0054
 ExpMin= 1.17D-01 ExpMax= 2.52D+04 ExpMxC= 3.78D+03 IAcc=1 IRadAn=         1 AccDes= 0.00D+00
 HarFok:  IExCor=  205 AccDes= 0.00D+00 IRadAn=         1 IDoV=-2
 ScaDFX=  1.000000  1.000000  1.000000  1.000000
 Range of M.O.s used for correlation:   112  1225
 NBasis=  1225 NAE=   298 NBE=   298 NFC=   111 NFV=     0
 NROrb=   1114 NOA=   187 NOB=   187 NVA=   927 NVB=   927

 **** Warning!!: The largest alpha MO coefficient is  0.10684847D+02


 **** Warning!!: The smallest alpha delta epsilon is  0.98071374D-01

 Would need an additional803030100000 words for in-memory AO integral storage.
 Orbital symmetries:
       Occupied  (A) (A) (A) (A) (A) (A) (A) (A) (A) (A) (A) (A)
                 (A) (A) (A) (A) (A) (A) (A) (A) (A) (A) (A) (A)
                 (A) (A) (A) (A) (A) (A) (A) (A) (A) (A) (A) (A)
                 (A) (A) (A) (A) (A) (A) (A) (A) (A) (A) (A) (A)
                 (A) (A) (A) (A) (A) (A) (A) (A) (A) (A) (A) (A)
                 (A) (A) (A) (A) (A) (A) (A) (A) (A) (A) (A) (A)
                 (A) (A) (A) (A) (A) (A) (A) (A) (A) (A) (A) (A)
                 (A) (A) (A) (A) (A) (A) (A) (A) (A) (A) (A) (A)
                 (A) (A) (A) (A) (A) (A) (A) (A) (A) (A) (A) (A)
                 (A) (A) (A) (A) (A) (A) (A) (A) (A) (A) (A) (A)
                 (A) (A) (A) (A) (A) (A) (A) (A) (A) (A) (A) (A)
                 (A) (A) (A) (A) (A) (A) (A) (A) (A) (A) (A) (A)
                 (A) (A) (A) (A) (A) (A) (A) (A) (A) (A) (A) (A)
                 (A) (A) (A) (A) (A) (A) (A) (A) (A) (A) (A) (A)
                 (A) (A) (A) (A) (A) (A) (A) (A) (A) (A) (A) (A)
                 (A) (A) (A) (A) (A) (A) (A) (A) (A) (A) (A) (A)
                 (A) (A) (A) (A) (A) (A) (A) (A) (A) (A) (A) (A)
                 (A) (A) (A) (A) (A) (A) (A) (A) (A) (A) (A) (A)
                 (A) (A) (A) (A) (A) (A) (A) (A) (A) (A) (A) (A)
                 (A) (A) (A) (A) (A) (A) (A) (A) (A) (A) (A) (A)
                 (A) (A) (A) (A) (A) (A) (A) (A) (A) (A) (A) (A)
                 (A) (A) (A) (A) (A) (A) (A) (A) (A) (A) (A) (A)
                 (A) (A) (A) (A) (A) (A) (A) (A) (A) (A) (A) (A)
                 (A) (A) (A) (A) (A) (A) (A) (A) (A) (A) (A) (A)
                 (A) (A) (A) (A) (A) (A) (A) (A) (A) (A)
       Virtual   (A) (A) (A) (A) (A) (A) (A) (A) (A) (A) (A) (A)
                 (A) (A) (A) (A) (A) (A) (A) (A) (A) (A) (A) (A)
                 (A) (A) (A) (A) (A) (A) (A) (A) (A) (A) (A) (A)
                 (A) (A) (A) (A) (A) (A) (A) (A) (A) (A) (A) (A)
                 (A) (A) (A) (A) (A) (A) (A) (A) (A) (A) (A) (A)
                 (A) (A) (A) (A) (A) (A) (A) (A) (A) (A) (A) (A)
                 (A) (A) (A) (A) (A) (A) (A) (A) (A) (A) (A) (A)
                 (A) (A) (A) (A) (A) (A) (A) (A) (A) (A) (A) (A)
                 (A) (A) (A) (A) (A) (A) (A) (A) (A) (A) (A) (A)
                 (A) (A) (A) (A) (A) (A) (A) (A) (A) (A) (A) (A)
                 (A) (A) (A) (A) (A) (A) (A) (A) (A) (A) (A) (A)
                 (A) (A) (A) (A) (A) (A) (A) (A) (A) (A) (A) (A)
                 (A) (A) (A) (A) (A) (A) (A) (A) (A) (A) (A) (A)
                 (A) (A) (A) (A) (A) (A) (A) (A) (A) (A) (A) (A)
                 (A) (A) (A) (A) (A) (A) (A) (A) (A) (A) (A) (A)
                 (A) (A) (A) (A) (A) (A) (A) (A) (A) (A) (A) (A)
                 (A) (A) (A) (A) (A) (A) (A) (A) (A) (A) (A) (A)
                 (A) (A) (A) (A) (A) (A) (A) (A) (A) (A) (A) (A)
                 (A) (A) (A) (A) (A) (A) (A) (A) (A) (A) (A) (A)
                 (A) (A) (A) (A) (A) (A) (A) (A) (A) (A) (A) (A)
                 (A) (A) (A) (A) (A) (A) (A) (A) (A) (A) (A) (A)
                 (A) (A) (A) (A) (A) (A) (A) (A) (A) (A) (A) (A)
                 (A) (A) (A) (A) (A) (A) (A) (A) (A) (A) (A) (A)
                 (A) (A) (A) (A) (A) (A) (A) (A) (A) (A) (A) (A)
                 (A) (A) (A) (A) (A) (A) (A) (A) (A) (A) (A) (A)
                 (A) (A) (A) (A) (A) (A) (A) (A) (A) (A) (A) (A)
                 (A) (A) (A) (A) (A) (A) (A) (A) (A) (A) (A) (A)
                 (A) (A) (A) (A) (A) (A) (A) (A) (A) (A) (A) (A)
                 (A) (A) (A) (A) (A) (A) (A) (A) (A) (A) (A) (A)
                 (A) (A) (A) (A) (A) (A) (A) (A) (A) (A) (A) (A)
                 (A) (A) (A) (A) (A) (A) (A) (A) (A) (A) (A) (A)
                 (A) (A) (A) (A) (A) (A) (A) (A) (A) (A) (A) (A)
                 (A) (A) (A) (A) (A) (A) (A) (A) (A) (A) (A) (A)
                 (A) (A) (A) (A) (A) (A) (A) (A) (A) (A) (A) (A)
                 (A) (A) (A) (A) (A) (A) (A) (A) (A) (A) (A) (A)
                 (A) (A) (A) (A) (A) (A) (A) (A) (A) (A) (A) (A)
                 (A) (A) (A) (A) (A) (A) (A) (A) (A) (A) (A) (A)
                 (A) (A) (A) (A) (A) (A) (A) (A) (A) (A) (A) (A)
                 (A) (A) (A) (A) (A) (A) (A) (A) (A) (A) (A) (A)
                 (A) (A) (A) (A) (A) (A) (A) (A) (A) (A) (A) (A)
                 (A) (A) (A) (A) (A) (A) (A) (A) (A) (A) (A) (A)
                 (A) (A) (A) (A) (A) (A) (A) (A) (A) (A) (A) (A)
                 (A) (A) (A) (A) (A) (A) (A) (A) (A) (A) (A) (A)
                 (A) (A) (A) (A) (A) (A) (A) (A) (A) (A) (A) (A)
                 (A) (A) (A) (A) (A) (A) (A) (A) (A) (A) (A) (A)
                 (A) (A) (A) (A) (A) (A) (A) (A) (A) (A) (A) (A)
                 (A) (A) (A) (A) (A) (A) (A) (A) (A) (A) (A) (A)
                 (A) (A) (A) (A) (A) (A) (A) (A) (A) (A) (A) (A)
                 (A) (A) (A) (A) (A) (A) (A) (A) (A) (A) (A) (A)
                 (A) (A) (A) (A) (A) (A) (A) (A) (A) (A) (A) (A)
                 (A) (A) (A) (A) (A) (A) (A) (A) (A) (A) (A) (A)
                 (A) (A) (A) (A) (A) (A) (A) (A) (A) (A) (A) (A)
                 (A) (A) (A) (A) (A) (A) (A) (A) (A) (A) (A) (A)
                 (A) (A) (A) (A) (A) (A) (A) (A) (A) (A) (A) (A)
                 (A) (A) (A) (A) (A) (A) (A) (A) (A) (A) (A) (A)
                 (A) (A) (A) (A) (A) (A) (A) (A) (A) (A) (A) (A)
                 (A) (A) (A) (A) (A) (A) (A) (A) (A) (A) (A) (A)
                 (A) (A) (A) (A) (A) (A) (A) (A) (A) (A) (A) (A)
                 (A) (A) (A) (A) (A) (A) (A) (A) (A) (A) (A) (A)
                 (A) (A) (A) (A) (A) (A) (A) (A) (A) (A) (A) (A)
                 (A) (A) (A) (A) (A) (A) (A) (A) (A) (A) (A) (A)
                 (A) (A) (A) (A) (A) (A) (A) (A) (A) (A) (A) (A)
                 (A) (A) (A) (A) (A) (A) (A) (A) (A) (A) (A) (A)
                 (A) (A) (A) (A) (A) (A) (A) (A) (A) (A) (A) (A)
                 (A) (A) (A) (A) (A) (A) (A) (A) (A) (A) (A) (A)
                 (A) (A) (A) (A) (A) (A) (A) (A) (A) (A) (A) (A)
                 (A) (A) (A) (A) (A) (A) (A) (A) (A) (A) (A) (A)
                 (A) (A) (A) (A) (A) (A) (A) (A) (A) (A) (A) (A)
                 (A) (A) (A) (A) (A) (A) (A) (A) (A) (A) (A) (A)
                 (A) (A) (A) (A) (A) (A) (A) (A) (A) (A) (A) (A)
                 (A) (A) (A) (A) (A) (A) (A) (A) (A) (A) (A) (A)
                 (A) (A) (A) (A) (A) (A) (A) (A) (A) (A) (A) (A)
                 (A) (A) (A) (A) (A) (A) (A) (A) (A) (A) (A) (A)
                 (A) (A) (A) (A) (A) (A) (A) (A) (A) (A) (A) (A)
                 (A) (A) (A) (A) (A) (A) (A) (A) (A) (A) (A) (A)
                 (A) (A) (A) (A) (A) (A) (A) (A) (A) (A) (A) (A)
                 (A) (A) (A) (A) (A) (A) (A) (A) (A) (A) (A) (A)
                 (A) (A) (A)
    12 initial guesses have been made.
 Convergence on wavefunction:    0.001000000000000
 Iteration     1 Dimension    12 NMult    12
 CISAX will form    12 AO SS matrices at one time.
 Iteration     2 Dimension    18 NMult    18
 Iteration     3 Dimension    24 NMult    24
 Iteration     4 Dimension    30 NMult    30
 Iteration     5 Dimension    36 NMult    36
 Iteration     6 Dimension    40 NMult    40
 Iteration     7 Dimension    44 NMult    44
 ***********************************************************************
 Excited states from <AA,BB:AA,BB> singles matrix:
 ***********************************************************************
 
 Ground to excited state transition densities written to RWF  633
 Ground to excited state transition electric dipole moments (Au):
       state          X           Y           Z        Dip. S.      Osc.
         1        -8.6216     -0.0591     -0.0268     74.3359      4.1047
         2        -1.8343     -2.2210     -0.0027      8.2977      0.5346
         3         1.4059     -2.3435      0.0064      7.4688      0.4891
 Ground to excited state transition velocity dipole moments (Au):
       state          X           Y           Z        Dip. S.      Osc.
         1         0.6893      0.0067      0.0024      0.4752      3.8250
         2         0.1720      0.2072      0.0001      0.0725      0.5001
         3        -0.1353      0.2221     -0.0009      0.0677      0.4592
 Ground to excited state transition magnetic dipole moments (Au):
       state          X           Y           Z
         1        -0.0969      0.0287      7.3193
         2        -0.0843      0.3088      2.4359
         3        -0.0519      0.3099     -0.7886
 Ground to excited state transition velocity quadrupole moments (Au):
       state          XX          YY          ZZ          XY          XZ          YZ
         1        -2.7988     -0.2271      0.0027      3.2912     -0.0537     -0.0819
         2        15.9809      0.3227     -0.0011      0.5841     -0.1692     -0.0746
         3        19.2421      0.4227      0.0066     -1.0977     -0.1363     -0.0431
 <0|del|b> * <b|rxdel|0> + <0|del|b> * <b|delr+rdel|0>
 Rotatory Strengths (R) in cgs (10**-40 erg-esu-cm/Gauss)
       state          XX          YY          ZZ    R(velocity)
         1       111.3523   -484.8732    -44.7434   -139.4214
         2       363.1033    -99.5770     99.7630    121.0965
         3       363.1136     45.2235    143.0982    183.8118
 1/2[<0|r|b>*<b|rxdel|0> + (<0|rxdel|b>*<b|r|0>)*]
 Rotatory Strengths (R) in cgs (10**-40 erg-esu-cm/Gauss)
       state          XX          YY          ZZ     R(length)
         1      -590.7845      1.1988    138.7434   -150.2808
         2      -109.4082    485.0880      4.6540    126.7779
         3        51.6209    513.5534      3.5908    189.5884
  1/2[<0|del|b>*<b|r|0> + (<0|r|b>*<b|del|0>)*] (Au)
       state          X           Y           Z        Dip. S.   Osc.(frdel)
         1        -5.9431     -0.0004     -0.0001      5.9436      3.9624
         2        -0.3154     -0.4602      0.0000      0.7756      0.5171
         3        -0.1903     -0.5206      0.0000      0.7108      0.4739

 Excitation energies and oscillator strengths:
 
 Excited State   1:      Singlet-A      2.2539 eV  550.09 nm  f=4.1047  <S**2>=0.000
     297 -> 299        0.18840
     297 -> 300        0.11674
     298 -> 299        0.64444
     298 -> 300       -0.15014
 This state for optimization and/or second-order correction.
 Total Energy, E(TD-HF/TD-KS) =  -6811.92167000    
 Copying the excited state density for this state as the 1-particle RhoCI density.
 
 Excited State   2:      Singlet-A      2.6299 eV  471.44 nm  f=0.5346  <S**2>=0.000
     296 -> 300        0.11361
     297 -> 299        0.66240
     298 -> 299       -0.19972
 
 Excited State   3:      Singlet-A      2.6730 eV  463.85 nm  f=0.4891  <S**2>=0.000
     298 -> 299        0.13785
     298 -> 300        0.67705
 SavETr:  write IOETrn=   770 NScale= 10 NData=  16 NLR=1 LETran=      64.

 **********************************************************************

            Population analysis using the SCF density.

 **********************************************************************

 Orbital symmetries:
       Occupied  (A) (A) (A) (A) (A) (A) (A) (A) (A) (A) (A) (A)
                 (A) (A) (A) (A) (A) (A) (A) (A) (A) (A) (A) (A)
                 (A) (A) (A) (A) (A) (A) (A) (A) (A) (A) (A) (A)
                 (A) (A) (A) (A) (A) (A) (A) (A) (A) (A) (A) (A)
                 (A) (A) (A) (A) (A) (A) (A) (A) (A) (A) (A) (A)
                 (A) (A) (A) (A) (A) (A) (A) (A) (A) (A) (A) (A)
                 (A) (A) (A) (A) (A) (A) (A) (A) (A) (A) (A) (A)
                 (A) (A) (A) (A) (A) (A) (A) (A) (A) (A) (A) (A)
                 (A) (A) (A) (A) (A) (A) (A) (A) (A) (A) (A) (A)
                 (A) (A) (A) (A) (A) (A) (A) (A) (A) (A) (A) (A)
                 (A) (A) (A) (A) (A) (A) (A) (A) (A) (A) (A) (A)
                 (A) (A) (A) (A) (A) (A) (A) (A) (A) (A) (A) (A)
                 (A) (A) (A) (A) (A) (A) (A) (A) (A) (A) (A) (A)
                 (A) (A) (A) (A) (A) (A) (A) (A) (A) (A) (A) (A)
                 (A) (A) (A) (A) (A) (A) (A) (A) (A) (A) (A) (A)
                 (A) (A) (A) (A) (A) (A) (A) (A) (A) (A) (A) (A)
                 (A) (A) (A) (A) (A) (A) (A) (A) (A) (A) (A) (A)
                 (A) (A) (A) (A) (A) (A) (A) (A) (A) (A) (A) (A)
                 (A) (A) (A) (A) (A) (A) (A) (A) (A) (A) (A) (A)
                 (A) (A) (A) (A) (A) (A) (A) (A) (A) (A) (A) (A)
                 (A) (A) (A) (A) (A) (A) (A) (A) (A) (A) (A) (A)
                 (A) (A) (A) (A) (A) (A) (A) (A) (A) (A) (A) (A)
                 (A) (A) (A) (A) (A) (A) (A) (A) (A) (A) (A) (A)
                 (A) (A) (A) (A) (A) (A) (A) (A) (A) (A) (A) (A)
                 (A) (A) (A) (A) (A) (A) (A) (A) (A) (A)
       Virtual   (A) (A) (A) (A) (A) (A) (A) (A) (A) (A) (A) (A)
                 (A) (A) (A) (A) (A) (A) (A) (A) (A) (A) (A) (A)
                 (A) (A) (A) (A) (A) (A) (A) (A) (A) (A) (A) (A)
                 (A) (A) (A) (A) (A) (A) (A) (A) (A) (A) (A) (A)
                 (A) (A) (A) (A) (A) (A) (A) (A) (A) (A) (A) (A)
                 (A) (A) (A) (A) (A) (A) (A) (A) (A) (A) (A) (A)
                 (A) (A) (A) (A) (A) (A) (A) (A) (A) (A) (A) (A)
                 (A) (A) (A) (A) (A) (A) (A) (A) (A) (A) (A) (A)
                 (A) (A) (A) (A) (A) (A) (A) (A) (A) (A) (A) (A)
                 (A) (A) (A) (A) (A) (A) (A) (A) (A) (A) (A) (A)
                 (A) (A) (A) (A) (A) (A) (A) (A) (A) (A) (A) (A)
                 (A) (A) (A) (A) (A) (A) (A) (A) (A) (A) (A) (A)
                 (A) (A) (A) (A) (A) (A) (A) (A) (A) (A) (A) (A)
                 (A) (A) (A) (A) (A) (A) (A) (A) (A) (A) (A) (A)
                 (A) (A) (A) (A) (A) (A) (A) (A) (A) (A) (A) (A)
                 (A) (A) (A) (A) (A) (A) (A) (A) (A) (A) (A) (A)
                 (A) (A) (A) (A) (A) (A) (A) (A) (A) (A) (A) (A)
                 (A) (A) (A) (A) (A) (A) (A) (A) (A) (A) (A) (A)
                 (A) (A) (A) (A) (A) (A) (A) (A) (A) (A) (A) (A)
                 (A) (A) (A) (A) (A) (A) (A) (A) (A) (A) (A) (A)
                 (A) (A) (A) (A) (A) (A) (A) (A) (A) (A) (A) (A)
                 (A) (A) (A) (A) (A) (A) (A) (A) (A) (A) (A) (A)
                 (A) (A) (A) (A) (A) (A) (A) (A) (A) (A) (A) (A)
                 (A) (A) (A) (A) (A) (A) (A) (A) (A) (A) (A) (A)
                 (A) (A) (A) (A) (A) (A) (A) (A) (A) (A) (A) (A)
                 (A) (A) (A) (A) (A) (A) (A) (A) (A) (A) (A) (A)
                 (A) (A) (A) (A) (A) (A) (A) (A) (A) (A) (A) (A)
                 (A) (A) (A) (A) (A) (A) (A) (A) (A) (A) (A) (A)
                 (A) (A) (A) (A) (A) (A) (A) (A) (A) (A) (A) (A)
                 (A) (A) (A) (A) (A) (A) (A) (A) (A) (A) (A) (A)
                 (A) (A) (A) (A) (A) (A) (A) (A) (A) (A) (A) (A)
                 (A) (A) (A) (A) (A) (A) (A) (A) (A) (A) (A) (A)
                 (A) (A) (A) (A) (A) (A) (A) (A) (A) (A) (A) (A)
                 (A) (A) (A) (A) (A) (A) (A) (A) (A) (A) (A) (A)
                 (A) (A) (A) (A) (A) (A) (A) (A) (A) (A) (A) (A)
                 (A) (A) (A) (A) (A) (A) (A) (A) (A) (A) (A) (A)
                 (A) (A) (A) (A) (A) (A) (A) (A) (A) (A) (A) (A)
                 (A) (A) (A) (A) (A) (A) (A) (A) (A) (A) (A) (A)
                 (A) (A) (A) (A) (A) (A) (A) (A) (A) (A) (A) (A)
                 (A) (A) (A) (A) (A) (A) (A) (A) (A) (A) (A) (A)
                 (A) (A) (A) (A) (A) (A) (A) (A) (A) (A) (A) (A)
                 (A) (A) (A) (A) (A) (A) (A) (A) (A) (A) (A) (A)
                 (A) (A) (A) (A) (A) (A) (A) (A) (A) (A) (A) (A)
                 (A) (A) (A) (A) (A) (A) (A) (A) (A) (A) (A) (A)
                 (A) (A) (A) (A) (A) (A) (A) (A) (A) (A) (A) (A)
                 (A) (A) (A) (A) (A) (A) (A) (A) (A) (A) (A) (A)
                 (A) (A) (A) (A) (A) (A) (A) (A) (A) (A) (A) (A)
                 (A) (A) (A) (A) (A) (A) (A) (A) (A) (A) (A) (A)
                 (A) (A) (A) (A) (A) (A) (A) (A) (A) (A) (A) (A)
                 (A) (A) (A) (A) (A) (A) (A) (A) (A) (A) (A) (A)
                 (A) (A) (A) (A) (A) (A) (A) (A) (A) (A) (A) (A)
                 (A) (A) (A) (A) (A) (A) (A) (A) (A) (A) (A) (A)
                 (A) (A) (A) (A) (A) (A) (A) (A) (A) (A) (A) (A)
                 (A) (A) (A) (A) (A) (A) (A) (A) (A) (A) (A) (A)
                 (A) (A) (A) (A) (A) (A) (A) (A) (A) (A) (A) (A)
                 (A) (A) (A) (A) (A) (A) (A) (A) (A) (A) (A) (A)
                 (A) (A) (A) (A) (A) (A) (A) (A) (A) (A) (A) (A)
                 (A) (A) (A) (A) (A) (A) (A) (A) (A) (A) (A) (A)
                 (A) (A) (A) (A) (A) (A) (A) (A) (A) (A) (A) (A)
                 (A) (A) (A) (A) (A) (A) (A) (A) (A) (A) (A) (A)
                 (A) (A) (A) (A) (A) (A) (A) (A) (A) (A) (A) (A)
                 (A) (A) (A) (A) (A) (A) (A) (A) (A) (A) (A) (A)
                 (A) (A) (A) (A) (A) (A) (A) (A) (A) (A) (A) (A)
                 (A) (A) (A) (A) (A) (A) (A) (A) (A) (A) (A) (A)
                 (A) (A) (A) (A) (A) (A) (A) (A) (A) (A) (A) (A)
                 (A) (A) (A) (A) (A) (A) (A) (A) (A) (A) (A) (A)
                 (A) (A) (A) (A) (A) (A) (A) (A) (A) (A) (A) (A)
                 (A) (A) (A) (A) (A) (A) (A) (A) (A) (A) (A) (A)
                 (A) (A) (A) (A) (A) (A) (A) (A) (A) (A) (A) (A)
                 (A) (A) (A) (A) (A) (A) (A) (A) (A) (A) (A) (A)
                 (A) (A) (A) (A) (A) (A) (A) (A) (A) (A) (A) (A)
                 (A) (A) (A) (A) (A) (A) (A) (A) (A) (A) (A) (A)
                 (A) (A) (A) (A) (A) (A) (A) (A) (A) (A) (A) (A)
                 (A) (A) (A) (A) (A) (A) (A) (A) (A) (A) (A) (A)
                 (A) (A) (A) (A) (A) (A) (A) (A) (A) (A) (A) (A)
                 (A) (A) (A) (A) (A) (A) (A) (A) (A) (A) (A) (A)
                 (A) (A) (A) (A) (A) (A) (A) (A) (A) (A) (A) (A)
                 (A) (A) (A)
 The electronic state is 1-A.
 Alpha  occ. eigenvalues -- -101.77869-101.77676-101.77658-101.77472-101.77351
 Alpha  occ. eigenvalues -- -101.77158 -89.12031 -89.11835 -89.10952 -19.34182
 Alpha  occ. eigenvalues --  -19.33614 -19.33499 -19.33389 -19.33183 -19.32915
 Alpha  occ. eigenvalues --  -14.43534 -14.42802 -14.42771 -14.42571 -14.42499
 Alpha  occ. eigenvalues --  -14.42036 -10.36556 -10.36414 -10.36298 -10.36240
 Alpha  occ. eigenvalues --  -10.36080 -10.35837 -10.33998 -10.33933 -10.33818
 Alpha  occ. eigenvalues --  -10.33770 -10.33754 -10.33729 -10.33479 -10.33424
 Alpha  occ. eigenvalues --  -10.33408 -10.33342 -10.33129 -10.33036 -10.31272
 Alpha  occ. eigenvalues --  -10.31230 -10.31040 -10.30987 -10.30913 -10.30743
 Alpha  occ. eigenvalues --  -10.30716 -10.30670 -10.30600 -10.30546 -10.29761
 Alpha  occ. eigenvalues --  -10.29521 -10.29432 -10.29380 -10.29166 -10.29154
 Alpha  occ. eigenvalues --  -10.28928 -10.28745 -10.28671 -10.28577 -10.28478
 Alpha  occ. eigenvalues --  -10.28346 -10.28197 -10.28077 -10.27993 -10.27916
 Alpha  occ. eigenvalues --  -10.27503 -10.27325 -10.27231 -10.26692 -10.26559
 Alpha  occ. eigenvalues --  -10.26538 -10.26416 -10.25990 -10.25983 -10.25601
 Alpha  occ. eigenvalues --   -9.55719  -9.55524  -9.55504  -9.55317  -9.55197
 Alpha  occ. eigenvalues --   -9.55003  -8.05494  -8.05298  -8.04417  -7.29740
 Alpha  occ. eigenvalues --   -7.29547  -7.29524  -7.29339  -7.29215  -7.29024
 Alpha  occ. eigenvalues --   -7.28733  -7.28682  -7.28540  -7.28520  -7.28484
 Alpha  occ. eigenvalues --   -7.28470  -7.28333  -7.28281  -7.28214  -7.28163
 Alpha  occ. eigenvalues --   -7.28019  -7.27967  -5.99552  -5.99356  -5.99191
 Alpha  occ. eigenvalues --   -5.98996  -5.98829  -5.98635  -5.98477  -5.98116
 Alpha  occ. eigenvalues --   -5.97751  -1.19118  -1.18605  -1.18541  -1.18359
 Alpha  occ. eigenvalues --   -1.18204  -1.17894  -0.98505  -0.98155  -0.98083
 Alpha  occ. eigenvalues --   -0.97929  -0.97749  -0.97452  -0.94274  -0.94067
 Alpha  occ. eigenvalues --   -0.93983  -0.93779  -0.93483  -0.93024  -0.91355
 Alpha  occ. eigenvalues --   -0.91086  -0.90742  -0.87486  -0.87241  -0.86681
 Alpha  occ. eigenvalues --   -0.86441  -0.86065  -0.85431  -0.84714  -0.84101
 Alpha  occ. eigenvalues --   -0.82855  -0.82395  -0.82079  -0.81687  -0.80955
 Alpha  occ. eigenvalues --   -0.80205  -0.78797  -0.78349  -0.77635  -0.77042
 Alpha  occ. eigenvalues --   -0.76705  -0.76483  -0.76114  -0.74779  -0.73985
 Alpha  occ. eigenvalues --   -0.72973  -0.71699  -0.71050  -0.70816  -0.70297
 Alpha  occ. eigenvalues --   -0.69891  -0.68977  -0.68473  -0.68158  -0.67752
 Alpha  occ. eigenvalues --   -0.67029  -0.65532  -0.64186  -0.63167  -0.62984
 Alpha  occ. eigenvalues --   -0.62708  -0.62562  -0.62491  -0.62254  -0.62159
 Alpha  occ. eigenvalues --   -0.61489  -0.60344  -0.59636  -0.59392  -0.59009
 Alpha  occ. eigenvalues --   -0.58574  -0.57917  -0.57425  -0.56463  -0.56129
 Alpha  occ. eigenvalues --   -0.55601  -0.55119  -0.54230  -0.53674  -0.52679
 Alpha  occ. eigenvalues --   -0.52494  -0.52280  -0.52116  -0.51967  -0.51649
 Alpha  occ. eigenvalues --   -0.51353  -0.51285  -0.51066  -0.50930  -0.50629
 Alpha  occ. eigenvalues --   -0.50530  -0.50086  -0.49699  -0.49359  -0.48970
 Alpha  occ. eigenvalues --   -0.48734  -0.48587  -0.48424  -0.48171  -0.48044
 Alpha  occ. eigenvalues --   -0.47728  -0.47636  -0.47382  -0.47312  -0.47145
 Alpha  occ. eigenvalues --   -0.46981  -0.46431  -0.45972  -0.45900  -0.45326
 Alpha  occ. eigenvalues --   -0.45240  -0.44877  -0.44246  -0.44149  -0.44117
 Alpha  occ. eigenvalues --   -0.44044  -0.43726  -0.43667  -0.43358  -0.43208
 Alpha  occ. eigenvalues --   -0.43131  -0.42749  -0.42598  -0.42422  -0.41763
 Alpha  occ. eigenvalues --   -0.41647  -0.41513  -0.41297  -0.41238  -0.41074
 Alpha  occ. eigenvalues --   -0.41031  -0.40948  -0.40765  -0.40720  -0.40508
 Alpha  occ. eigenvalues --   -0.40446  -0.40385  -0.40150  -0.39794  -0.39518
 Alpha  occ. eigenvalues --   -0.39342  -0.39273  -0.38523  -0.38027  -0.37775
 Alpha  occ. eigenvalues --   -0.37008  -0.36817  -0.36743  -0.36696  -0.36520
 Alpha  occ. eigenvalues --   -0.36139  -0.35798  -0.35695  -0.35453  -0.35217
 Alpha  occ. eigenvalues --   -0.34925  -0.34682  -0.34473  -0.34245  -0.34090
 Alpha  occ. eigenvalues --   -0.34015  -0.33924  -0.33839  -0.33786  -0.33474
 Alpha  occ. eigenvalues --   -0.33280  -0.32512  -0.32403  -0.32117  -0.31911
 Alpha  occ. eigenvalues --   -0.31768  -0.31637  -0.31560  -0.31223  -0.30434
 Alpha  occ. eigenvalues --   -0.29187  -0.27638  -0.27176  -0.27001  -0.26371
 Alpha  occ. eigenvalues --   -0.26136  -0.25521  -0.24915  -0.24549  -0.24089
 Alpha  occ. eigenvalues --   -0.22619  -0.21471  -0.20545
 Alpha virt. eigenvalues --   -0.10737  -0.09711  -0.07981  -0.06420  -0.04947
 Alpha virt. eigenvalues --   -0.03074  -0.02247  -0.01112  -0.00347  -0.00046
 Alpha virt. eigenvalues --    0.00674   0.01324   0.01470   0.01513   0.02266
 Alpha virt. eigenvalues --    0.02477   0.02899   0.03128   0.03365   0.03448
 Alpha virt. eigenvalues --    0.03746   0.03922   0.04145   0.04228   0.04716
 Alpha virt. eigenvalues --    0.05827   0.06220   0.07438   0.08357   0.08553
 Alpha virt. eigenvalues --    0.08607   0.09042   0.09130   0.09298   0.09357
 Alpha virt. eigenvalues --    0.09839   0.10052   0.10287   0.10628   0.11380
 Alpha virt. eigenvalues --    0.11606   0.12464   0.12545   0.12998   0.13037
 Alpha virt. eigenvalues --    0.13207   0.13516   0.13646   0.13798   0.14225
 Alpha virt. eigenvalues --    0.14306   0.14716   0.14922   0.15147   0.15790
 Alpha virt. eigenvalues --    0.15852   0.16248   0.16313   0.16344   0.16640
 Alpha virt. eigenvalues --    0.16675   0.17008   0.17285   0.17542   0.17806
 Alpha virt. eigenvalues --    0.18267   0.18296   0.18454   0.18727   0.19011
 Alpha virt. eigenvalues --    0.19192   0.19444   0.19501   0.19949   0.20238
 Alpha virt. eigenvalues --    0.20383   0.20974   0.21124   0.21416   0.21666
 Alpha virt. eigenvalues --    0.22081   0.22167   0.22501   0.22703   0.22856
 Alpha virt. eigenvalues --    0.23304   0.24217   0.24312   0.24370   0.24501
 Alpha virt. eigenvalues --    0.24705   0.24848   0.24970   0.25224   0.25795
 Alpha virt. eigenvalues --    0.25867   0.26250   0.26645   0.27058   0.27469
 Alpha virt. eigenvalues --    0.28111   0.28411   0.28926   0.29170   0.29980
 Alpha virt. eigenvalues --    0.30275   0.30338   0.30379   0.30561   0.30775
 Alpha virt. eigenvalues --    0.30941   0.31245   0.31746   0.31858   0.32228
 Alpha virt. eigenvalues --    0.32400   0.32700   0.32753   0.33875   0.34767
 Alpha virt. eigenvalues --    0.34891   0.35246   0.35746   0.36124   0.36379
 Alpha virt. eigenvalues --    0.36465   0.36551   0.36758   0.36995   0.37467
 Alpha virt. eigenvalues --    0.37591   0.37683   0.37953   0.38022   0.38393
 Alpha virt. eigenvalues --    0.38821   0.38936   0.39769   0.39996   0.40376
 Alpha virt. eigenvalues --    0.40580   0.40841   0.41077   0.41215   0.41237
 Alpha virt. eigenvalues --    0.41427   0.41542   0.41904   0.43052   0.43133
 Alpha virt. eigenvalues --    0.43782   0.44084   0.44443   0.44577   0.44761
 Alpha virt. eigenvalues --    0.44889   0.45175   0.45305   0.45486   0.45522
 Alpha virt. eigenvalues --    0.45650   0.45694   0.45778   0.45983   0.46487
 Alpha virt. eigenvalues --    0.46797   0.46990   0.47387   0.47684   0.47843
 Alpha virt. eigenvalues --    0.48515   0.48792   0.49154   0.49340   0.49916
 Alpha virt. eigenvalues --    0.50041   0.50284   0.50486   0.50744   0.50818
 Alpha virt. eigenvalues --    0.50872   0.50951   0.51178   0.51276   0.51399
 Alpha virt. eigenvalues --    0.51504   0.51652   0.52036   0.52085   0.52195
 Alpha virt. eigenvalues --    0.52326   0.52648   0.52780   0.53296   0.53365
 Alpha virt. eigenvalues --    0.53650   0.54013   0.54178   0.54498   0.54567
 Alpha virt. eigenvalues --    0.54700   0.54869   0.55034   0.55389   0.55701
 Alpha virt. eigenvalues --    0.55915   0.56545   0.56670   0.57059   0.57334
 Alpha virt. eigenvalues --    0.57435   0.57490   0.57641   0.57765   0.58084
 Alpha virt. eigenvalues --    0.58700   0.58801   0.58984   0.59173   0.59273
 Alpha virt. eigenvalues --    0.59844   0.60013   0.60609   0.60716   0.60778
 Alpha virt. eigenvalues --    0.60840   0.60968   0.61087   0.61111   0.61136
 Alpha virt. eigenvalues --    0.61390   0.61489   0.61719   0.61779   0.62417
 Alpha virt. eigenvalues --    0.62478   0.62703   0.62913   0.63080   0.63938
 Alpha virt. eigenvalues --    0.64215   0.64530   0.64701   0.65056   0.65732
 Alpha virt. eigenvalues --    0.66249   0.66388   0.66519   0.66626   0.66724
 Alpha virt. eigenvalues --    0.66783   0.67165   0.67190   0.67266   0.67468
 Alpha virt. eigenvalues --    0.67636   0.67879   0.68129   0.68274   0.69798
 Alpha virt. eigenvalues --    0.70163   0.70366   0.70420   0.70622   0.70930
 Alpha virt. eigenvalues --    0.71175   0.71422   0.71685   0.71888   0.72007
 Alpha virt. eigenvalues --    0.72360   0.72740   0.73079   0.73742   0.73986
 Alpha virt. eigenvalues --    0.74203   0.74440   0.74502   0.74695   0.74952
 Alpha virt. eigenvalues --    0.75087   0.75184   0.75381   0.75562   0.75632
 Alpha virt. eigenvalues --    0.75804   0.76127   0.76203   0.76751   0.76930
 Alpha virt. eigenvalues --    0.77527   0.77736   0.78124   0.78323   0.78406
 Alpha virt. eigenvalues --    0.78427   0.78598   0.78849   0.79057   0.79371
 Alpha virt. eigenvalues --    0.79400   0.80761   0.81071   0.81407   0.81644
 Alpha virt. eigenvalues --    0.81734   0.81916   0.82204   0.82553   0.82914
 Alpha virt. eigenvalues --    0.83232   0.83406   0.83417   0.83721   0.83959
 Alpha virt. eigenvalues --    0.84270   0.84579   0.84783   0.84829   0.84958
 Alpha virt. eigenvalues --    0.84963   0.85432   0.85741   0.85947   0.86284
 Alpha virt. eigenvalues --    0.86439   0.86732   0.86867   0.86995   0.87044
 Alpha virt. eigenvalues --    0.87130   0.87277   0.87438   0.87477   0.87555
 Alpha virt. eigenvalues --    0.87619   0.87624   0.87653   0.87952   0.88116
 Alpha virt. eigenvalues --    0.88211   0.88388   0.88407   0.88737   0.89030
 Alpha virt. eigenvalues --    0.89138   0.89175   0.89271   0.89593   0.89841
 Alpha virt. eigenvalues --    0.89871   0.90053   0.90187   0.90547   0.90721
 Alpha virt. eigenvalues --    0.91093   0.91327   0.91578   0.92076   0.92192
 Alpha virt. eigenvalues --    0.92344   0.92616   0.92783   0.92898   0.93456
 Alpha virt. eigenvalues --    0.93511   0.93554   0.93825   0.94075   0.94179
 Alpha virt. eigenvalues --    0.94241   0.94323   0.94481   0.94602   0.94895
 Alpha virt. eigenvalues --    0.95014   0.95084   0.95372   0.95561   0.96299
 Alpha virt. eigenvalues --    0.96500   0.97084   0.97565   0.97660   0.97939
 Alpha virt. eigenvalues --    0.98383   0.98882   0.98908   0.99446   0.99790
 Alpha virt. eigenvalues --    0.99853   1.00159   1.00256   1.00363   1.00678
 Alpha virt. eigenvalues --    1.00942   1.01233   1.01407   1.01511   1.01931
 Alpha virt. eigenvalues --    1.02911   1.03190   1.03326   1.03474   1.03501
 Alpha virt. eigenvalues --    1.03996   1.04539   1.04877   1.04944   1.05170
 Alpha virt. eigenvalues --    1.05676   1.06227   1.06389   1.07319   1.07949
 Alpha virt. eigenvalues --    1.08096   1.08290   1.08316   1.08604   1.08750
 Alpha virt. eigenvalues --    1.08950   1.09558   1.10757   1.11111   1.11614
 Alpha virt. eigenvalues --    1.12052   1.12593   1.12628   1.12666   1.13045
 Alpha virt. eigenvalues --    1.13159   1.13587   1.14045   1.14885   1.15691
 Alpha virt. eigenvalues --    1.15810   1.16620   1.16907   1.17146   1.17427
 Alpha virt. eigenvalues --    1.17689   1.17788   1.17884   1.18221   1.18996
 Alpha virt. eigenvalues --    1.19165   1.19401   1.19955   1.20499   1.21024
 Alpha virt. eigenvalues --    1.21695   1.22138   1.22362   1.22697   1.22989
 Alpha virt. eigenvalues --    1.24069   1.24600   1.24715   1.25431   1.25627
 Alpha virt. eigenvalues --    1.26103   1.26264   1.26436   1.26797   1.27516
 Alpha virt. eigenvalues --    1.28020   1.28111   1.28768   1.29228   1.29703
 Alpha virt. eigenvalues --    1.29965   1.30253   1.31032   1.31303   1.31389
 Alpha virt. eigenvalues --    1.31624   1.31823   1.31902   1.32188   1.32643
 Alpha virt. eigenvalues --    1.32791   1.32905   1.33100   1.33385   1.33530
 Alpha virt. eigenvalues --    1.33692   1.34076   1.34173   1.34229   1.34295
 Alpha virt. eigenvalues --    1.34537   1.34724   1.35546   1.35898   1.36274
 Alpha virt. eigenvalues --    1.36612   1.36686   1.37022   1.37089   1.37312
 Alpha virt. eigenvalues --    1.37680   1.38483   1.38824   1.38924   1.39330
 Alpha virt. eigenvalues --    1.39895   1.40340   1.40926   1.41415   1.42718
 Alpha virt. eigenvalues --    1.43878   1.44576   1.45075   1.45198   1.45343
 Alpha virt. eigenvalues --    1.45593   1.46660   1.46968   1.47149   1.47217
 Alpha virt. eigenvalues --    1.47899   1.48060   1.48404   1.48497   1.48761
 Alpha virt. eigenvalues --    1.48910   1.49159   1.50381   1.50739   1.51045
 Alpha virt. eigenvalues --    1.51110   1.51603   1.52007   1.52079   1.52343
 Alpha virt. eigenvalues --    1.53280   1.54023   1.54384   1.54461   1.55194
 Alpha virt. eigenvalues --    1.55386   1.55662   1.56048   1.56587   1.58214
 Alpha virt. eigenvalues --    1.58551   1.58655   1.59840   1.60263   1.60600
 Alpha virt. eigenvalues --    1.61665   1.62414   1.62801   1.63620   1.63697
 Alpha virt. eigenvalues --    1.64493   1.64704   1.65034   1.65144   1.65582
 Alpha virt. eigenvalues --    1.65654   1.65962   1.67951   1.68270   1.68813
 Alpha virt. eigenvalues --    1.68873   1.69506   1.71922   1.73037   1.76124
 Alpha virt. eigenvalues --    1.76464   1.76693   1.76850   1.77159   1.77516
 Alpha virt. eigenvalues --    1.79176   1.79389   1.79719   1.80092   1.80229
 Alpha virt. eigenvalues --    1.80879   1.81008   1.81473   1.81918   1.82097
 Alpha virt. eigenvalues --    1.82150   1.82302   1.82572   1.82750   1.82881
 Alpha virt. eigenvalues --    1.83418   1.83780   1.84650   1.84764   1.84988
 Alpha virt. eigenvalues --    1.85092   1.85356   1.85577   1.85682   1.85981
 Alpha virt. eigenvalues --    1.86473   1.86785   1.86965   1.87829   1.88225
 Alpha virt. eigenvalues --    1.88613   1.88931   1.89175   1.89559   1.89656
 Alpha virt. eigenvalues --    1.90260   1.90818   1.90924   1.91386   1.91997
 Alpha virt. eigenvalues --    1.92473   1.92606   1.92787   1.92951   1.93308
 Alpha virt. eigenvalues --    1.93541   1.93907   1.94234   1.94445   1.94456
 Alpha virt. eigenvalues --    1.94763   1.95219   1.95646   1.95763   1.96246
 Alpha virt. eigenvalues --    1.96578   1.96890   1.97391   1.97646   1.97984
 Alpha virt. eigenvalues --    1.98130   1.98660   1.99063   1.99727   2.00120
 Alpha virt. eigenvalues --    2.00478   2.01007   2.01216   2.02931   2.03364
 Alpha virt. eigenvalues --    2.03536   2.04097   2.04410   2.04796   2.04852
 Alpha virt. eigenvalues --    2.05248   2.05446   2.05947   2.06202   2.06426
 Alpha virt. eigenvalues --    2.07320   2.07393   2.07622   2.07939   2.08366
 Alpha virt. eigenvalues --    2.08803   2.09061   2.09869   2.12259   2.12575
 Alpha virt. eigenvalues --    2.13085   2.13565   2.13815   2.13969   2.14280
 Alpha virt. eigenvalues --    2.14927   2.15282   2.16765   2.17071   2.17084
 Alpha virt. eigenvalues --    2.17895   2.18841   2.19061   2.19392   2.19678
 Alpha virt. eigenvalues --    2.19740   2.20094   2.20272   2.20533   2.20746
 Alpha virt. eigenvalues --    2.21355   2.21661   2.21889   2.22091   2.22862
 Alpha virt. eigenvalues --    2.23172   2.23283   2.23635   2.23767   2.24261
 Alpha virt. eigenvalues --    2.24606   2.24819   2.24965   2.25633   2.26090
 Alpha virt. eigenvalues --    2.26512   2.26800   2.27480   2.28322   2.28860
 Alpha virt. eigenvalues --    2.29036   2.29260   2.29676   2.29825   2.30284
 Alpha virt. eigenvalues --    2.30905   2.31104   2.31492   2.31814   2.32424
 Alpha virt. eigenvalues --    2.32637   2.32953   2.33069   2.33422   2.34144
 Alpha virt. eigenvalues --    2.35096   2.36920   2.37820   2.38799   2.39400
 Alpha virt. eigenvalues --    2.39930   2.40011   2.41802   2.42207   2.42965
 Alpha virt. eigenvalues --    2.43142   2.43480   2.43990   2.44028   2.44218
 Alpha virt. eigenvalues --    2.45079   2.45506   2.45583   2.45934   2.47065
 Alpha virt. eigenvalues --    2.47430   2.47571   2.47862   2.48479   2.48922
 Alpha virt. eigenvalues --    2.49688   2.50710   2.51274   2.51325   2.51826
 Alpha virt. eigenvalues --    2.52001   2.52597   2.52992   2.53333   2.53676
 Alpha virt. eigenvalues --    2.54715   2.55164   2.56192   2.56598   2.56843
 Alpha virt. eigenvalues --    2.57072   2.57278   2.57445   2.57590   2.57630
 Alpha virt. eigenvalues --    2.58094   2.58686   2.59853   2.60015   2.60375
 Alpha virt. eigenvalues --    2.60757   2.61422   2.62658   2.63473   2.63940
 Alpha virt. eigenvalues --    2.64288   2.64328   2.64744   2.66101   2.66897
 Alpha virt. eigenvalues --    2.67770   2.68014   2.68314   2.68683   2.69018
 Alpha virt. eigenvalues --    2.69337   2.69905   2.71941   2.72119   2.72398
 Alpha virt. eigenvalues --    2.72756   2.73335   2.74310   2.74747   2.75586
 Alpha virt. eigenvalues --    2.76288   2.78550   2.78930   2.79177   2.79342
 Alpha virt. eigenvalues --    2.82537   2.83160   2.84633   2.84751   2.85212
 Alpha virt. eigenvalues --    2.86696   2.87253   2.88622   2.89019   2.89308
 Alpha virt. eigenvalues --    2.89758   2.91107   2.91453   2.91816   2.94737
 Alpha virt. eigenvalues --    2.94998   2.96020   2.96562   2.96754   2.97898
 Alpha virt. eigenvalues --    3.00103   3.00379   3.01177   3.02253   3.02335
 Alpha virt. eigenvalues --    3.03208   3.06784   3.08456   3.09073   3.09910
 Alpha virt. eigenvalues --    3.11661   3.12990   3.13931   3.14448   3.14916
 Alpha virt. eigenvalues --    3.16170   3.17802   3.20950   3.21292   3.21478
 Alpha virt. eigenvalues --    3.21835   3.22441   3.24418   3.25017   3.26597
 Alpha virt. eigenvalues --    3.27523   3.28452   3.31496   3.31954   3.45363
 Alpha virt. eigenvalues --    3.47169   3.47559   3.98799   3.99069   3.99372
 Alpha virt. eigenvalues --    4.00957   4.04471   4.04711   4.05158   4.05331
 Alpha virt. eigenvalues --    4.05700   4.08033   4.08840   4.09056   4.09635
 Alpha virt. eigenvalues --    4.09776   4.09885   4.10465   4.10706   4.11157
 Alpha virt. eigenvalues --    4.11823   4.12035   4.12385   4.13684   4.14102
 Alpha virt. eigenvalues --    4.14363   4.15626   4.16282   4.17344   4.19238
 Alpha virt. eigenvalues --    4.20069   4.20550   4.22663   4.25146   4.25392
 Alpha virt. eigenvalues --    4.26498   4.26971   4.29477   4.29741   4.30241
 Alpha virt. eigenvalues --    4.30542   4.30781   4.31756   4.32321   4.32961
 Alpha virt. eigenvalues --    4.34719   4.35197   4.35221   4.35505   4.39277
 Alpha virt. eigenvalues --    4.40309   4.43106   4.44064   4.44168   4.46140
 Alpha virt. eigenvalues --    4.48659   4.49237   4.50821   4.51441   4.52590
 Alpha virt. eigenvalues --    4.53790   4.55188   4.57881   4.58484   4.59258
 Alpha virt. eigenvalues --    4.61168   4.69282   4.69324   4.69620   4.73956
 Alpha virt. eigenvalues --    4.74351   4.78178   4.84736   4.85478   4.90056
 Alpha virt. eigenvalues --    4.91655   4.92084
          Condensed to atoms (all electrons):
 Mulliken atomic charges:
              1
     1  C    0.258071
     2  O   -0.466246
     3  N   -0.472533
     4  C    0.343779
     5  C    0.212961
     6  C   -0.219482
     7  C   -0.215390
     8  C    0.231597
     9  C    0.351515
    10  N   -0.548275
    11  O   -0.538157
    12  C    0.563942
    13  C   -0.265408
    14  H    0.219803
    15  C   -0.124804
    16  H    0.211343
    17  C   -0.249117
    18  C    0.117073
    19  S    0.330580
    20  C    0.136778
    21  C   -0.229909
    22  H    0.223684
    23  C   -0.170750
    24  C   -0.229019
    25  H    0.213984
    26  H    0.209117
    27  C   -0.608329
    28  H    0.198851
    29  H    0.203624
    30  H    0.202833
    31  C   -0.617314
    32  H    0.207465
    33  H    0.206012
    34  H    0.194878
    35  C    0.559852
    36  O   -0.535216
    37  N   -0.549340
    38  C    0.352332
    39  C    0.228774
    40  C   -0.224230
    41  C   -0.224259
    42  C    0.230010
    43  C    0.353377
    44  N   -0.548620
    45  O   -0.538638
    46  C    0.562770
    47  C   -0.265420
    48  H    0.219343
    49  C   -0.126202
    50  H    0.210838
    51  C   -0.249147
    52  C    0.117062
    53  S    0.329759
    54  C    0.136260
    55  C   -0.609057
    56  C   -0.228279
    57  C   -0.618187
    58  H    0.202975
    59  H    0.198761
    60  H    0.202714
    61  C   -0.170764
    62  H    0.207413
    63  H    0.207011
    64  H    0.194624
    65  C   -0.229236
    66  H    0.212914
    67  H    0.206901
    68  C    0.559296
    69  O   -0.535840
    70  N   -0.549781
    71  C    0.351872
    72  C    0.228198
    73  C   -0.225576
    74  C   -0.224923
    75  C    0.230669
    76  C    0.353188
    77  N   -0.552175
    78  O   -0.539129
    79  C    0.563395
    80  C   -0.269384
    81  H    0.215733
    82  C   -0.123964
    83  H    0.208400
    84  C   -0.253373
    85  C    0.119048
    86  S    0.312548
    87  C    0.129981
    88  C   -0.603651
    89  C   -0.233404
    90  C   -0.606253
    91  H    0.198513
    92  H    0.196504
    93  H    0.200209
    94  C   -0.130813
    95  H    0.200221
    96  H    0.194630
    97  H    0.187896
    98  C   -0.391072
    99  H    0.184420
   100  H    0.184602
   101  Cl   0.096871
   102  Cl   0.089841
   103  Cl   0.085799
   104  Cl   0.092189
   105  Cl   0.083556
   106  Cl   0.088853
   107  H    0.182655
 Sum of Mulliken atomic charges =   0.00000
 Mulliken charges with hydrogens summed into heavy atoms:
              1
     1  C    0.481754
     2  O   -0.466246
     3  N   -0.472533
     4  C    0.343779
     5  C    0.212961
     6  C   -0.219482
     7  C   -0.215390
     8  C    0.231597
     9  C    0.351515
    10  N   -0.548275
    11  O   -0.538157
    12  C    0.563942
    13  C   -0.045604
    15  C    0.086539
    17  C   -0.249117
    18  C    0.117073
    19  S    0.330580
    20  C    0.136778
    21  C   -0.229909
    23  C    0.043234
    24  C   -0.019902
    27  C   -0.003021
    31  C   -0.008959
    35  C    0.559852
    36  O   -0.535216
    37  N   -0.549340
    38  C    0.352332
    39  C    0.228774
    40  C   -0.224230
    41  C   -0.224259
    42  C    0.230010
    43  C    0.353377
    44  N   -0.548620
    45  O   -0.538638
    46  C    0.562770
    47  C   -0.046077
    49  C    0.084636
    51  C   -0.249147
    52  C    0.117062
    53  S    0.329759
    54  C    0.136260
    55  C   -0.004606
    56  C   -0.228279
    57  C   -0.009139
    61  C    0.042151
    65  C   -0.022335
    68  C    0.559296
    69  O   -0.535840
    70  N   -0.549781
    71  C    0.351872
    72  C    0.228198
    73  C   -0.225576
    74  C   -0.224923
    75  C    0.230669
    76  C    0.353188
    77  N   -0.552175
    78  O   -0.539129
    79  C    0.563395
    80  C   -0.053651
    82  C    0.084436
    84  C   -0.253373
    85  C    0.119048
    86  S    0.312548
    87  C    0.129981
    88  C   -0.008424
    89  C   -0.233404
    90  C   -0.023506
    94  C    0.053606
    98  C   -0.023815
   101  Cl   0.096871
   102  Cl   0.089841
   103  Cl   0.085799
   104  Cl   0.092189
   105  Cl   0.083556
   106  Cl   0.088853
 Sum of Mulliken charges with hydrogens summed into heavy atoms =   0.00000
 Electronic spatial extent (au):  <R**2>=         378781.5972
 Charge=              0.0000 electrons
 Dipole moment (field-independent basis, Debye):
    X=             -4.6256    Y=             -4.6349    Z=              0.1522  Tot=              6.5500
 Quadrupole moment (field-independent basis, Debye-Ang):
   XX=           -305.1939   YY=           -450.9734   ZZ=           -490.2088
   XY=            -38.9418   XZ=              8.8777   YZ=             -0.0616
 Traceless Quadrupole moment (field-independent basis, Debye-Ang):
   XX=            110.2648   YY=            -35.5147   ZZ=            -74.7501
   XY=            -38.9418   XZ=              8.8777   YZ=             -0.0616
 Octapole moment (field-independent basis, Debye-Ang**2):
  XXX=          -3931.7742  YYY=            -11.5909  ZZZ=             -4.3240  XYY=            -44.8428
  XXY=            604.9290  XXZ=            -29.8988  XZZ=             76.3545  YZZ=             -1.7065
  YYZ=             12.3194  XYZ=            -55.5371
 Hexadecapole moment (field-independent basis, Debye-Ang**3):
 XXXX=        -368819.2469 YYYY=         -33008.9607 ZZZZ=           -789.9461 XXXY=         -14624.2127
 XXXZ=           1255.4559 YYYX=            340.8181 YYYZ=            213.1189 ZZZX=             23.5608
 ZZZY=            -25.4773 XXYY=         -74748.1460 XXZZ=         -81143.6997 YYZZ=          -6072.5614
 XXYZ=           -561.7430 YYXZ=           -151.7822 ZZXY=            442.2336
 N-N= 1.095376628372D+04 E-N=-3.794130374433D+04  KE= 6.775223412542D+03
 1\1\GINC-BL0\SP\RmPW1PW91 TD-FC\6-31G(d)\C54H32Cl6N6O6S3\TOMLINSA\08-N
 ov-2011\0\\# td mpw1pw91/6-31g(d)\\TON_B25i_mPW1PW91_6_31d_n2_TDDFT\\0
 ,1\C,0,20.286562,5.454066,-0.298795\O,0,19.075305,6.051406,-0.443814\N
 ,0,20.281799,4.182464,-0.108466\C,0,18.188553,5.025361,-0.33078\C,0,18
 .937301,3.851056,-0.120489\C,0,16.806974,5.087185,-0.4041\C,0,18.30536
 2,2.614023,0.035096\C,0,16.174286,3.851498,-0.248814\C,0,16.926696,2.6
 73926,-0.038022\N,0,14.839205,3.525201,-0.261955\O,0,16.044391,1.64926
 1,0.074046\C,0,14.812126,2.238287,-0.07127\C,0,13.646401,1.409854,-0.0
 03179\H,0,12.713017,1.948547,-0.12636\C,0,13.690611,0.072659,0.195805\
 H,0,14.666839,-0.387836,0.309948\C,0,12.563746,-0.811491,0.273401\C,0,
 12.58214,-2.187887,0.480099\S,0,10.94116,-0.231463,0.107993\C,0,11.283
 002,-2.764307,0.502703\C,0,10.277558,-1.824172,0.304551\H,0,21.142923,
 6.108733,-0.35755\C,0,8.846599,-1.944509,0.250404\C,0,8.108345,-3.0785
 59,0.189522\H,0,8.299434,-1.00461,0.245827\H,0,8.5419,-4.067588,0.1499
 77\C,0,13.827393,-3.000503,0.670376\H,0,14.734143,-2.404633,0.565813\H
 ,0,13.852168,-3.458042,1.665407\H,0,13.884212,-3.81151,-0.062754\C,0,1
 1.038296,-4.222615,0.741965\H,0,10.259175,-4.375625,1.495089\H,0,10.71
 7844,-4.735977,-0.17218\H,0,11.940924,-4.723503,1.095642\C,0,6.675914,
 -3.073651,0.145205\O,0,6.018883,-1.870462,0.192221\N,0,5.901633,-4.117
 454,0.06237\C,0,4.703455,-2.197446,0.131884\C,0,4.627293,-3.605452,0.0
 50046\C,0,3.618167,-1.341349,0.147624\C,0,3.388081,-4.250741,-0.025601
 \C,0,2.379561,-1.986985,0.07317\C,0,2.30283,-3.395456,-0.010475\N,0,1.
 106007,-1.474287,0.065145\O,0,0.987376,-3.722033,-0.06892\C,0,0.330189
 ,-2.516751,-0.018293\C,0,-1.100117,-2.516027,-0.059005\H,0,-1.544149,-
 1.5277,-0.007089\C,0,-1.845339,-3.641411,-0.154444\H,0,-1.319808,-4.58
 969,-0.205771\C,0,-3.277022,-3.710924,-0.194628\C,0,-4.065144,-4.85262
 2,-0.313112\S,0,-4.259139,-2.289491,-0.091515\C,0,-5.457714,-4.569374,
 -0.321305\C,0,-3.524817,-6.246739,-0.424262\C,0,-5.727741,-3.209138,-0
 .209831\C,0,-6.509131,-5.630805,-0.431325\H,0,-3.848729,-6.721137,-1.3
 56499\H,0,-2.435282,-6.274037,-0.408646\H,0,-3.877619,-6.874269,0.4010
 29\C,0,-6.959758,-2.471239,-0.171225\H,0,-7.209295,-5.589104,0.409759\
 H,0,-7.094107,-5.524061,-1.351685\H,0,-6.067146,-6.628077,-0.440118\C,
 0,-8.222972,-2.943875,-0.299169\H,0,-6.854381,-1.398954,-0.023078\H,0,
 -8.453954,-3.986491,-0.461901\C,0,-9.380408,-2.101414,-0.236852\O,0,-9
 .20831,-0.755605,-0.035048\N,0,-10.620035,-2.483442,-0.352741\C,0,-10.
 46701,-0.248519,-0.024065\C,0,-11.353482,-1.329501,-0.222828\C,0,-10.8
 45743,1.070224,0.147544\C,0,-12.736691,-1.120461,-0.259747\C,0,-12.228
 157,1.278676,0.110856\C,0,-13.115435,0.196976,-0.088021\N,0,-12.960917
 ,2.43242,0.242757\O,0,-14.373576,0.703675,-0.075088\C,0,-14.201461,2.0
 52042,0.128464\C,0,-15.362919,2.884637,0.194456\H,0,-15.148739,3.93537
 1,0.357019\C,0,-16.625319,2.41396,0.067093\H,0,-16.749622,1.347244,-0.
 092702\C,0,-17.833398,3.183098,0.122843\C,0,-19.136173,2.718123,0.0049
 34\S,0,-17.812836,4.903352,0.358138\C,0,-20.110445,3.754315,0.106416\C
 ,0,-19.517959,1.282951,-0.192984\C,0,-19.542645,5.003261,0.286521\C,0,
 -21.584765,3.489821,0.064582\H,0,-20.177992,1.169374,-1.059027\H,0,-18
 .653996,0.637364,-0.352984\H,0,-20.058559,0.894806,0.677859\C,0,-20.15
 2659,6.314182,0.437716\H,0,-22.131768,4.221929,0.663847\H,0,-21.981345
 ,3.538115,-0.956864\H,0,-21.816862,2.494908,0.45319\C,0,-21.339584,6.7
 0716,-0.042908\H,0,-19.557694,7.042711,0.985534\H,0,-21.970991,6.06665
 4,-0.646845\Cl,0,15.948664,6.549742,-0.662693\Cl,0,19.166345,1.151038,
 0.293569\Cl,0,3.232166,-5.958294,-0.12747\Cl,0,3.774854,0.364965,0.250
 082\Cl,0,-13.864543,-2.394547,-0.497503\Cl,0,-9.71721,2.342414,0.38567
 4\H,0,-21.699147,7.713598,0.140627\\Version=EM64L-G09RevB.01\State=1-A
 \HF=-6812.0044983\RMSD=5.487e-09\PG=C01 [X(C54H32Cl6N6O6S3)]\\@


 REVOLUTIONS HAVE NEVER LIGHTENED THE BURDEN OF TYRANNY:
 THEY HAVE MERELY SHIFTED IT TO OTHER SHOULDERS.
                                   -- G. B. SHAW (1903)
 Job cpu time:  7 days 18 hours  9 minutes  2.3 seconds.
 File lengths (MBytes):  RWF=   2369 Int=      0 D2E=      0 Chk=    219 Scr=      1
 Normal termination of Gaussian 09 at Tue Nov  8 23:24:25 2011.
