 Entering Gaussian System, Link 0=/usr/apps/chemistry/gaussian/g09_a02/g09/g09
 Input=input.com
 Output=4a_CON_2J_4a_TDDFT.out
 Initial command:
 /usr/apps/chemistry/gaussian/g09_a02/g09/l1.exe /cfs/scratch/batch/3309479/Gau-26028.inp -scrdir=/cfs/scratch/batch/3309479/
 Entering Link 1 = /usr/apps/chemistry/gaussian/g09_a02/g09/l1.exe PID=     26029.
  
 Copyright (c) 1988,1990,1992,1993,1995,1998,2003,2009, Gaussian, Inc.
                  All Rights Reserved.
  
 This is part of the Gaussian(R) 09 program.  It is based on
 the Gaussian(R) 03 system (copyright 2003, Gaussian, Inc.),
 the Gaussian(R) 98 system (copyright 1998, Gaussian, Inc.),
 the Gaussian(R) 94 system (copyright 1995, Gaussian, Inc.),
 the Gaussian 92(TM) system (copyright 1992, Gaussian, Inc.),
 the Gaussian 90(TM) system (copyright 1990, Gaussian, Inc.),
 the Gaussian 88(TM) system (copyright 1988, Gaussian, Inc.),
 the Gaussian 86(TM) system (copyright 1986, Carnegie Mellon
 University), and the Gaussian 82(TM) system (copyright 1983,
 Carnegie Mellon University). Gaussian is a federally registered
 trademark of Gaussian, Inc.
  
 This software contains proprietary and confidential information,
 including trade secrets, belonging to Gaussian, Inc.
  
 This software is provided under written license and may be
 used, copied, transmitted, or stored only in accord with that
 written license.
  
 The following legend is applicable only to US Government
 contracts under FAR:
  
                    RESTRICTED RIGHTS LEGEND
  
 Use, reproduction and disclosure by the US Government is
 subject to restrictions as set forth in subparagraphs (a)
 and (c) of the Commercial Computer Software - Restricted
 Rights clause in FAR 52.227-19.
  
 Gaussian, Inc.
 340 Quinnipiac St., Bldg. 40, Wallingford CT 06492
  
  
 ---------------------------------------------------------------
 Warning -- This program may not be used in any manner that
 competes with the business of Gaussian, Inc. or will provide
 assistance to any competitor of Gaussian, Inc.  The licensee
 of this program is prohibited from giving any competitor of
 Gaussian, Inc. access to this program.  By using this program,
 the user acknowledges that Gaussian, Inc. is engaged in the
 business of creating and licensing software in the field of
 computational chemistry and represents and warrants to the
 licensee that it is not a competitor of Gaussian, Inc. and that
 it will not use this program in any manner prohibited above.
 ---------------------------------------------------------------
  

 Cite this work as:
 Gaussian 09, Revision A.02,
 M. J. Frisch, G. W. Trucks, H. B. Schlegel, G. E. Scuseria, 
 M. A. Robb, J. R. Cheeseman, G. Scalmani, V. Barone, B. Mennucci, 
 G. A. Petersson, H. Nakatsuji, M. Caricato, X. Li, H. P. Hratchian, 
 A. F. Izmaylov, J. Bloino, G. Zheng, J. L. Sonnenberg, M. Hada, 
 M. Ehara, K. Toyota, R. Fukuda, J. Hasegawa, M. Ishida, T. Nakajima, 
 Y. Honda, O. Kitao, H. Nakai, T. Vreven, J. A. Montgomery, Jr., 
 J. E. Peralta, F. Ogliaro, M. Bearpark, J. J. Heyd, E. Brothers, 
 K. N. Kudin, V. N. Staroverov, R. Kobayashi, J. Normand, 
 K. Raghavachari, A. Rendell, J. C. Burant, S. S. Iyengar, J. Tomasi, 
 M. Cossi, N. Rega, J. M. Millam, M. Klene, J. E. Knox, J. B. Cross, 
 V. Bakken, C. Adamo, J. Jaramillo, R. Gomperts, R. E. Stratmann, 
 O. Yazyev, A. J. Austin, R. Cammi, C. Pomelli, J. W. Ochterski, 
 R. L. Martin, K. Morokuma, V. G. Zakrzewski, G. A. Voth, 
 P. Salvador, J. J. Dannenberg, S. Dapprich, A. D. Daniels, 
 O. Farkas, J. B. Foresman, J. V. Ortiz, J. Cioslowski, 
 and D. J. Fox, Gaussian, Inc., Wallingford CT, 2009.
 
 ******************************************
 Gaussian 09:  EM64L-G09RevA.02 11-Jun-2009
                15-Oct-2010 
 ******************************************
 %nprocs=8
 Will use up to    8 processors via shared memory.
 %mem=6000MB
 %chk=4a_CON_2J_4a_TDDFT.chk
 --------------------------------------------------
 # td=(nstates=10) b3lyp/6-31g(d) geom=connectivity
 --------------------------------------------------
 1/38=1,57=2/1;
 2/12=2,17=6,18=5,40=1/2;
 3/5=1,6=6,7=1,11=2,16=1,25=1,30=1,74=-5/1,2,8,3;
 4//1;
 5/5=2,38=5/2;
 8/6=1,10=2,108=10/1;
 9/41=10,42=1/14;
 6/7=2,8=2,9=2,10=2/1;
 99/5=1,9=1/99;
 ------------------
 4a_CON_2J_4a_TDDFT
 ------------------
 Symbolic Z-matrix:
 Charge =  0 Multiplicity = 1
 C                    -0.00001  -1.4143    0.00001 
 C                    -1.14071  -0.60411   0.01472 
 C                    -1.17244   0.80952   0.01307 
 C                    -0.00001   1.59628   0.00002 
 C                     1.17242   0.80952  -0.01304 
 C                     1.1407   -0.60411  -0.0147 
 N                     2.50662   1.20955   0.01504 
 C                     3.19809   0.11206   0.02678 
 O                     2.44097  -1.04057   0.01053 
 O                    -2.44099  -1.04057  -0.01052 
 C                    -3.1981    0.11205  -0.02678 
 N                    -2.50663   1.20954  -0.01503 
 C                     0.00001  -2.89333   0.00001 
 C                    -0.98968  -3.61348   0.69243 
 C                     0.98972  -3.61345  -0.69241 
 C                    -0.98722  -5.0069    0.69185 
 H                    -1.75695  -3.07799   1.24077 
 C                     0.98729  -5.00687  -0.69183 
 H                     1.75697  -3.07793  -1.24073 
 C                     0.00005  -5.71061   0.00001 
 H                    -1.75784  -5.54399   1.23856 
 H                     1.75793  -5.54394  -1.23854 
 H                     0.00006  -6.79724   0.00001 
 C                    -0.00001   3.0744    0.00003 
 C                     1.02774   3.79737  -0.63509 
 C                    -1.02775   3.79737   0.63515 
 C                     1.02369   5.19038  -0.6359 
 H                     1.83127   3.2615   -1.12513 
 C                    -1.0237    5.19038   0.63598 
 H                    -1.83129   3.26149   1.12518 
 C                    0.         5.89474   0.00004 
 H                     1.82463   5.72711  -1.13791 
 H                    -1.82464   5.72711   1.13799 
 H                    0.         6.98168   0.00005 
 C                     4.64896  -0.03482   0.05805 
 C                     5.2516   -1.30255   0.08882 
 C                     5.45324   1.11736   0.06033 
 C                     6.64014  -1.41212   0.11895 
 H                     4.63065  -2.19218   0.0931 
 C                     6.83884   0.99849   0.09061 
 H                     4.97475   2.09087   0.04037 
 C                     7.43672  -0.26515   0.11923 
 H                     7.10094  -2.39572   0.14352 
 H                     7.45556   1.89296   0.09252 
 H                     8.51937  -0.35461   0.14292 
 C                    -4.64897  -0.03483  -0.05807 
 C                    -5.2516   -1.30257  -0.08875 
 C                    -5.45326   1.11734  -0.06049 
 C                    -6.64014  -1.41215  -0.11891 
 H                    -4.63065  -2.1922   -0.09293 
 C                    -6.83885   0.99847  -0.09081 
 H                    -4.97477   2.09086  -0.0406 
 C                    -7.43673  -0.26518  -0.11933 
 H                    -7.10093  -2.39576  -0.14341 
 H                    -7.45558   1.89292  -0.09281 
 H                    -8.51938  -0.35465  -0.14304 
 
 Stoichiometry    C32H20N2O2
 Framework group  C1[X(C32H20N2O2)]
 Deg. of freedom   162
 Full point group                 C1      NOp   1
 Largest Abelian subgroup         C1      NOp   1
 Largest concise Abelian subgroup C1      NOp   1
                         Standard orientation:                         
 ---------------------------------------------------------------------
 Center     Atomic      Atomic             Coordinates (Angstroms)
 Number     Number       Type             X           Y           Z
 ---------------------------------------------------------------------
      1          6           0        0.000005    1.414297    0.000010
      2          6           0        1.140709    0.604112    0.014719
      3          6           0        1.172437   -0.809520    0.013073
      4          6           0        0.000009   -1.596284    0.000018
      5          6           0       -1.172422   -0.809524   -0.013044
      6          6           0       -1.140695    0.604107   -0.014698
      7          7           0       -2.506616   -1.209545    0.015043
      8          6           0       -3.198091   -0.112056    0.026782
      9          8           0       -2.440974    1.040566    0.010525
     10          8           0        2.440986    1.040570   -0.010518
     11          6           0        3.198104   -0.112050   -0.026780
     12          7           0        2.506632   -1.209540   -0.015025
     13          6           0       -0.000009    2.893334    0.000013
     14          6           0        0.989683    3.613481    0.692433
     15          6           0       -0.989720    3.613453   -0.692407
     16          6           0        0.987219    5.006900    0.691852
     17          1           0        1.756946    3.077991    1.240765
     18          6           0       -0.987294    5.006872   -0.691831
     19          1           0       -1.756972    3.077933   -1.240727
     20          6           0       -0.000047    5.710611    0.000009
     21          1           0        1.757838    5.543986    1.238563
     22          1           0       -1.757929    5.543936   -1.238542
     23          1           0       -0.000061    6.797244    0.000006
     24          6           0        0.000009   -3.074400    0.000026
     25          6           0       -1.027737   -3.797371   -0.635094
     26          6           0        1.027752   -3.797368    0.635153
     27          6           0       -1.023692   -5.190381   -0.635904
     28          1           0       -1.831272   -3.261496   -1.125128
     29          6           0        1.023702   -5.190378    0.635978
     30          1           0        1.831289   -3.261492    1.125184
     31          6           0        0.000004   -5.894743    0.000041
     32          1           0       -1.824628   -5.727113   -1.137914
     33          1           0        1.824636   -5.727107    1.137994
     34          1           0        0.000002   -6.981684    0.000046
     35          6           0       -4.648956    0.034816    0.058047
     36          6           0       -5.251597    1.302552    0.088818
     37          6           0       -5.453243   -1.117361    0.060333
     38          6           0       -6.640142    1.412123    0.118946
     39          1           0       -4.630648    2.192180    0.093103
     40          6           0       -6.838836   -0.998493    0.090614
     41          1           0       -4.974749   -2.090874    0.040369
     42          6           0       -7.436723    0.265148    0.119228
     43          1           0       -7.100939    2.395723    0.143516
     44          1           0       -7.455559   -1.892955    0.092519
     45          1           0       -8.519370    0.354606    0.142915
     46          6           0        4.648967    0.034830   -0.058069
     47          6           0        5.251600    1.302570   -0.088746
     48          6           0        5.453261   -1.117344   -0.060487
     49          6           0        6.640144    1.412152   -0.118911
     50          1           0        4.630646    2.192196   -0.092933
     51          6           0        6.838852   -0.998465   -0.090807
     52          1           0        4.974772   -2.090861   -0.040595
     53          6           0        7.436731    0.265182   -0.119325
     54          1           0        7.100935    2.395757   -0.143411
     55          1           0        7.455580   -1.892924   -0.092814
     56          1           0        8.519377    0.354648   -0.143038
 ---------------------------------------------------------------------
 Rotational constants (GHZ):      0.1409323      0.0753161      0.0496158
 Standard basis: 6-31G(d) (6D, 7F)
 There are   580 symmetry adapted basis functions of A   symmetry.
 Integral buffers will be    131072 words long.
 Raffenetti 2 integral format.
 Two-electron integral symmetry is turned on.
   580 basis functions,  1088 primitive gaussians,   580 cartesian basis functions
   121 alpha electrons      121 beta electrons
       nuclear repulsion energy      3390.0487039280 Hartrees.
 NAtoms=   56 NActive=   56 NUniq=   56 SFac= 7.50D-01 NAtFMM=   80 NAOKFM=F Big=F
 One-electron integrals computed using PRISM.
 NBasis=   580 RedAO= T  NBF=   580
 NBsUse=   580 1.00D-06 NBFU=   580
 Harris functional with IExCor=  402 diagonalized for initial guess.
 ExpMin= 1.61D-01 ExpMax= 5.48D+03 ExpMxC= 8.25D+02 IAcc=1 IRadAn=         1 AccDes= 0.00D+00
 HarFok:  IExCor=  402 AccDes= 0.00D+00 IRadAn=         1 IDoV= 1
 ScaDFX=  1.000000  1.000000  1.000000  1.000000
 FoFCou: FMM=F IPFlag=           0 FMFlag=      100000 FMFlg1=           0
         NFxFlg=           0 DoJE=T BraDBF=F KetDBF=T FulRan=T
         Omega=  0.000000  0.000000  1.000000  0.000000  0.000000 ICntrl=     500 IOpCl=  0
         NMat0=    1 NMatS0=    1 NMatT0=    0 NMatD0=    1 NMtDS0=    0 NMtDT0=    0
         I1Cent=           4 NGrid=           0.
 Petite list used in FoFCou.
 Initial guess orbital symmetries:
       Occupied  (A) (A) (A) (A) (A) (A) (A) (A) (A) (A) (A) (A)
                 (A) (A) (A) (A) (A) (A) (A) (A) (A) (A) (A) (A)
                 (A) (A) (A) (A) (A) (A) (A) (A) (A) (A) (A) (A)
                 (A) (A) (A) (A) (A) (A) (A) (A) (A) (A) (A) (A)
                 (A) (A) (A) (A) (A) (A) (A) (A) (A) (A) (A) (A)
                 (A) (A) (A) (A) (A) (A) (A) (A) (A) (A) (A) (A)
                 (A) (A) (A) (A) (A) (A) (A) (A) (A) (A) (A) (A)
                 (A) (A) (A) (A) (A) (A) (A) (A) (A) (A) (A) (A)
                 (A) (A) (A) (A) (A) (A) (A) (A) (A) (A) (A) (A)
                 (A) (A) (A) (A) (A) (A) (A) (A) (A) (A) (A) (A)
                 (A)
       Virtual   (A) (A) (A) (A) (A) (A) (A) (A) (A) (A) (A) (A)
                 (A) (A) (A) (A) (A) (A) (A) (A) (A) (A) (A) (A)
                 (A) (A) (A) (A) (A) (A) (A) (A) (A) (A) (A) (A)
                 (A) (A) (A) (A) (A) (A) (A) (A) (A) (A) (A) (A)
                 (A) (A) (A) (A) (A) (A) (A) (A) (A) (A) (A) (A)
                 (A) (A) (A) (A) (A) (A) (A) (A) (A) (A) (A) (A)
                 (A) (A) (A) (A) (A) (A) (A) (A) (A) (A) (A) (A)
                 (A) (A) (A) (A) (A) (A) (A) (A) (A) (A) (A) (A)
                 (A) (A) (A) (A) (A) (A) (A) (A) (A) (A) (A) (A)
                 (A) (A) (A) (A) (A) (A) (A) (A) (A) (A) (A) (A)
                 (A) (A) (A) (A) (A) (A) (A) (A) (A) (A) (A) (A)
                 (A) (A) (A) (A) (A) (A) (A) (A) (A) (A) (A) (A)
                 (A) (A) (A) (A) (A) (A) (A) (A) (A) (A) (A) (A)
                 (A) (A) (A) (A) (A) (A) (A) (A) (A) (A) (A) (A)
                 (A) (A) (A) (A) (A) (A) (A) (A) (A) (A) (A) (A)
                 (A) (A) (A) (A) (A) (A) (A) (A) (A) (A) (A) (A)
                 (A) (A) (A) (A) (A) (A) (A) (A) (A) (A) (A) (A)
                 (A) (A) (A) (A) (A) (A) (A) (A) (A) (A) (A) (A)
                 (A) (A) (A) (A) (A) (A) (A) (A) (A) (A) (A) (A)
                 (A) (A) (A) (A) (A) (A) (A) (A) (A) (A) (A) (A)
                 (A) (A) (A) (A) (A) (A) (A) (A) (A) (A) (A) (A)
                 (A) (A) (A) (A) (A) (A) (A) (A) (A) (A) (A) (A)
                 (A) (A) (A) (A) (A) (A) (A) (A) (A) (A) (A) (A)
                 (A) (A) (A) (A) (A) (A) (A) (A) (A) (A) (A) (A)
                 (A) (A) (A) (A) (A) (A) (A) (A) (A) (A) (A) (A)
                 (A) (A) (A) (A) (A) (A) (A) (A) (A) (A) (A) (A)
                 (A) (A) (A) (A) (A) (A) (A) (A) (A) (A) (A) (A)
                 (A) (A) (A) (A) (A) (A) (A) (A) (A) (A) (A) (A)
                 (A) (A) (A) (A) (A) (A) (A) (A) (A) (A) (A) (A)
                 (A) (A) (A) (A) (A) (A) (A) (A) (A) (A) (A) (A)
                 (A) (A) (A) (A) (A) (A) (A) (A) (A) (A) (A) (A)
                 (A) (A) (A) (A) (A) (A) (A) (A) (A) (A) (A) (A)
                 (A) (A) (A) (A) (A) (A) (A) (A) (A) (A) (A) (A)
                 (A) (A) (A) (A) (A) (A) (A) (A) (A) (A) (A) (A)
                 (A) (A) (A) (A) (A) (A) (A) (A) (A) (A) (A) (A)
                 (A) (A) (A) (A) (A) (A) (A) (A) (A) (A) (A) (A)
                 (A) (A) (A) (A) (A) (A) (A) (A) (A) (A) (A) (A)
                 (A) (A) (A) (A) (A) (A) (A) (A) (A) (A) (A) (A)
                 (A) (A) (A)
 The electronic state of the initial guess is 1-A.
 Requested convergence on RMS density matrix=1.00D-08 within 128 cycles.
 Requested convergence on MAX density matrix=1.00D-06.
 Requested convergence on             energy=1.00D-06.
 No special actions if energy rises.
 Integral accuracy reduced to 1.0D-05 until final iterations.
 Initial convergence to 1.0D-05 achieved.  Increase integral accuracy.
 SCF Done:  E(RB3LYP) =  -1491.44515528     A.U. after   16 cycles
             Convg  =    0.3629D-08             -V/T =  2.0096
 ExpMin= 1.61D-01 ExpMax= 5.48D+03 ExpMxC= 8.25D+02 IAcc=1 IRadAn=         1 AccDes= 0.00D+00
 HarFok:  IExCor=  205 AccDes= 0.00D+00 IRadAn=         1 IDoV=-2
 ScaDFX=  1.000000  1.000000  1.000000  1.000000
 Range of M.O.s used for correlation:    37   580
 NBasis=   580 NAE=   121 NBE=   121 NFC=    36 NFV=     0
 NROrb=    544 NOA=    85 NOB=    85 NVA=   459 NVB=   459

 **** Warning!!: The largest alpha MO coefficient is  0.10024523D+02

 Would need an additional 42777800000 words for in-memory AO integral storage.
 Orbital symmetries:
       Occupied  (A) (A) (A) (A) (A) (A) (A) (A) (A) (A) (A) (A)
                 (A) (A) (A) (A) (A) (A) (A) (A) (A) (A) (A) (A)
                 (A) (A) (A) (A) (A) (A) (A) (A) (A) (A) (A) (A)
                 (A) (A) (A) (A) (A) (A) (A) (A) (A) (A) (A) (A)
                 (A) (A) (A) (A) (A) (A) (A) (A) (A) (A) (A) (A)
                 (A) (A) (A) (A) (A) (A) (A) (A) (A) (A) (A) (A)
                 (A) (A) (A) (A) (A) (A) (A) (A) (A) (A) (A) (A)
                 (A) (A) (A) (A) (A) (A) (A) (A) (A) (A) (A) (A)
                 (A) (A) (A) (A) (A) (A) (A) (A) (A) (A) (A) (A)
                 (A) (A) (A) (A) (A) (A) (A) (A) (A) (A) (A) (A)
                 (A)
       Virtual   (A) (A) (A) (A) (A) (A) (A) (A) (A) (A) (A) (A)
                 (A) (A) (A) (A) (A) (A) (A) (A) (A) (A) (A) (A)
                 (A) (A) (A) (A) (A) (A) (A) (A) (A) (A) (A) (A)
                 (A) (A) (A) (A) (A) (A) (A) (A) (A) (A) (A) (A)
                 (A) (A) (A) (A) (A) (A) (A) (A) (A) (A) (A) (A)
                 (A) (A) (A) (A) (A) (A) (A) (A) (A) (A) (A) (A)
                 (A) (A) (A) (A) (A) (A) (A) (A) (A) (A) (A) (A)
                 (A) (A) (A) (A) (A) (A) (A) (A) (A) (A) (A) (A)
                 (A) (A) (A) (A) (A) (A) (A) (A) (A) (A) (A) (A)
                 (A) (A) (A) (A) (A) (A) (A) (A) (A) (A) (A) (A)
                 (A) (A) (A) (A) (A) (A) (A) (A) (A) (A) (A) (A)
                 (A) (A) (A) (A) (A) (A) (A) (A) (A) (A) (A) (A)
                 (A) (A) (A) (A) (A) (A) (A) (A) (A) (A) (A) (A)
                 (A) (A) (A) (A) (A) (A) (A) (A) (A) (A) (A) (A)
                 (A) (A) (A) (A) (A) (A) (A) (A) (A) (A) (A) (A)
                 (A) (A) (A) (A) (A) (A) (A) (A) (A) (A) (A) (A)
                 (A) (A) (A) (A) (A) (A) (A) (A) (A) (A) (A) (A)
                 (A) (A) (A) (A) (A) (A) (A) (A) (A) (A) (A) (A)
                 (A) (A) (A) (A) (A) (A) (A) (A) (A) (A) (A) (A)
                 (A) (A) (A) (A) (A) (A) (A) (A) (A) (A) (A) (A)
                 (A) (A) (A) (A) (A) (A) (A) (A) (A) (A) (A) (A)
                 (A) (A) (A) (A) (A) (A) (A) (A) (A) (A) (A) (A)
                 (A) (A) (A) (A) (A) (A) (A) (A) (A) (A) (A) (A)
                 (A) (A) (A) (A) (A) (A) (A) (A) (A) (A) (A) (A)
                 (A) (A) (A) (A) (A) (A) (A) (A) (A) (A) (A) (A)
                 (A) (A) (A) (A) (A) (A) (A) (A) (A) (A) (A) (A)
                 (A) (A) (A) (A) (A) (A) (A) (A) (A) (A) (A) (A)
                 (A) (A) (A) (A) (A) (A) (A) (A) (A) (A) (A) (A)
                 (A) (A) (A) (A) (A) (A) (A) (A) (A) (A) (A) (A)
                 (A) (A) (A) (A) (A) (A) (A) (A) (A) (A) (A) (A)
                 (A) (A) (A) (A) (A) (A) (A) (A) (A) (A) (A) (A)
                 (A) (A) (A) (A) (A) (A) (A) (A) (A) (A) (A) (A)
                 (A) (A) (A) (A) (A) (A) (A) (A) (A) (A) (A) (A)
                 (A) (A) (A) (A) (A) (A) (A) (A) (A) (A) (A) (A)
                 (A) (A) (A) (A) (A) (A) (A) (A) (A) (A) (A) (A)
                 (A) (A) (A) (A) (A) (A) (A) (A) (A) (A) (A) (A)
                 (A) (A) (A) (A) (A) (A) (A) (A) (A) (A) (A) (A)
                 (A) (A) (A) (A) (A) (A) (A) (A) (A) (A) (A) (A)
                 (A) (A) (A)
    40 initial guesses have been made.
 Convergence on wavefunction:    0.001000000000000
 Iteration     1 Dimension    40 NMult    40
 CISAX will form    40 AO SS matrices at one time.
 New state      4 was old state      5
 New state      5 was old state      7
 New state      7 was old state      9
 New state      8 was old state      4
 New state      9 was old state      8
 No map to state     10
 Iteration     2 Dimension    60 NMult    60
 New state      6 was old state      8
 New state      7 was old state      6
 New state      8 was old state      9
 New state      9 was old state      7
 Iteration     3 Dimension    80 NMult    80
 Iteration     4 Dimension   100 NMult   100
 Iteration     5 Dimension   120 NMult   120
 Iteration     6 Dimension   128 NMult   128
 Iteration     7 Dimension   130 NMult   130
 ***********************************************************************
 Excited states from <AA,BB:AA,BB> singles matrix:
 ***********************************************************************
 
 Ground to excited state transition electric dipole moments (Au):
       state          X           Y           Z        Dip. S.      Osc.
         1         0.0000      1.9939      0.0000      3.9755      0.3255
         2         2.3536      0.0000     -0.0710      5.5446      0.4795
         3        -2.7077      0.0000      0.1062      7.3430      0.6884
         4        -0.3931      0.0000     -0.1073      0.1661      0.0167
         5         0.0000      1.7555      0.0000      3.0817      0.3195
         6         0.0000      0.5492      0.0000      0.3016      0.0316
         7         0.0000      0.8337      0.0000      0.6950      0.0740
         8        -1.1106      0.0000      0.0286      1.2343      0.1363
         9        -0.0865      0.0000     -0.0675      0.0120      0.0013
        10         0.1656      0.0000     -0.0028      0.0274      0.0031
 Ground to excited state transition velocity dipole moments (Au):
       state          X           Y           Z        Dip. S.      Osc.
         1         0.0000     -0.2426      0.0000      0.0588      0.3194
         2        -0.2924      0.0000      0.0086      0.0856      0.4397
         3         0.3724      0.0000     -0.0178      0.1390      0.6590
         4         0.0601      0.0000      0.0197      0.0040      0.0177
         5         0.0000     -0.2660      0.0000      0.0707      0.3033
         6         0.0000     -0.0841      0.0000      0.0071      0.0300
         7         0.0000     -0.1311      0.0000      0.0172      0.0718
         8         0.1736      0.0000     -0.0064      0.0302      0.1215
         9         0.0161      0.0000      0.0110      0.0004      0.0015
        10        -0.0242      0.0000     -0.0001      0.0006      0.0023
 Ground to excited state transition magnetic dipole moments (Au):
       state          X           Y           Z
         1         0.0000      0.0013      0.0000
         2         0.0053      0.0000     -0.2210
         3         0.0243      0.0000      0.3461
         4        -0.2910      0.0000      0.4784
         5         0.0000      0.0307      0.0000
         6         0.0000      0.0011      0.0000
         7         0.0000     -0.0587      0.0000
         8         0.0069      0.0000      0.2672
         9         0.1579      0.0000     -0.2179
        10        -0.0020      0.0000      0.5044
 <0|del|b> * <b|rxdel|0> + <0|del|b> * <b|delr+rdel|0>
 Rotatory Strengths (R) in cgs (10**-40 erg-esu-cm/Gauss)
       state          XX          YY          ZZ    R(velocity)
         1        34.5981      0.0000    -36.4255     -0.6091
 Total R(velocity) tensor for State=          1
                 1             2             3 
      1   0.345981D+02  0.934007D-02  0.101231D+04
      2   0.194995D-02  0.000000D+00 -0.480484D-02
      3   0.874787D+01 -0.338687D-03 -0.364255D+02
 R(velocity) tensor in inp. orien. for State=          1
                 1             2             3 
      1   0.345981D+02  0.933918D-02 -0.101231D+04
      2   0.194906D-02  0.000000D+00  0.483105D-02
      3  -0.874787D+01  0.338914D-03 -0.364255D+02
         2        -7.1871    -11.5148     -0.0853     -6.2624
 Total R(velocity) tensor for State=          2
                 1             2             3 
      1  -0.718706D+01 -0.296996D-01 -0.243761D+03
      2  -0.501504D-03 -0.115148D+02 -0.148162D-01
      3  -0.251569D-02 -0.153341D-04 -0.853237D-01
 R(velocity) tensor in inp. orien. for State=          2
                 1             2             3 
      1  -0.718706D+01 -0.296997D-01  0.243761D+03
      2  -0.501616D-03 -0.115148D+02  0.148099D-01
      3   0.251569D-02  0.153340D-04 -0.853237D-01
         3       -21.7495      8.7336     27.3946      4.7929
 Total R(velocity) tensor for State=          3
                 1             2             3 
      1  -0.217495D+02 -0.452962D-01 -0.454217D+03
      2   0.248418D-03  0.873364D+01  0.679734D-02
      3   0.131175D+01  0.136813D-03  0.273946D+02
 R(velocity) tensor in inp. orien. for State=          3
                 1             2             3 
      1  -0.217495D+02 -0.452954D-01  0.454217D+03
      2   0.249208D-03  0.873364D+01 -0.680910D-02
      3  -0.131175D+01 -0.136779D-03  0.273946D+02
         4        13.7456    -32.7455    -18.8638    -12.6212
 Total R(velocity) tensor for State=          4
                 1             2             3 
      1   0.137456D+02 -0.562292D-03 -0.419171D+02
      2   0.666219D-03 -0.327455D+02 -0.169030D-02
      3   0.618587D+01  0.174733D-04 -0.188638D+02
 R(velocity) tensor in inp. orien. for State=          4
                 1             2             3 
      1   0.137456D+02 -0.563496D-03  0.419171D+02
      2   0.665015D-03 -0.327455D+02  0.168921D-02
      3  -0.618587D+01 -0.173131D-04 -0.188638D+02
         5        -5.0966      0.0000    -32.0844    -12.3937
 Total R(velocity) tensor for State=          5
                 1             2             3 
      1  -0.509664D+01  0.330294D-02  0.622665D+03
      2  -0.467396D-02  0.000000D+00 -0.715523D-02
      3  -0.119445D+01 -0.181730D-03 -0.320844D+02
 R(velocity) tensor in inp. orien. for State=          5
                 1             2             3 
      1  -0.509664D+01  0.330307D-02 -0.622665D+03
      2  -0.467383D-02  0.000000D+00  0.717135D-02
      3   0.119445D+01  0.181700D-03 -0.320844D+02
         6       -22.7065      0.0000     22.2998     -0.1356
 Total R(velocity) tensor for State=          6
                 1             2             3 
      1  -0.227065D+02  0.196590D-01 -0.814860D+03
      2   0.877867D-02  0.000000D+00  0.332011D-02
      3  -0.281339D+01 -0.610271D-03  0.222998D+02
 R(velocity) tensor in inp. orien. for State=          6
                 1             2             3 
      1  -0.227065D+02  0.196596D-01  0.814860D+03
      2   0.877926D-02  0.000000D+00 -0.334121D-02
      3   0.281339D+01  0.610198D-03  0.222998D+02
         7        -4.3287      0.0000     38.3812     11.3508
 Total R(velocity) tensor for State=          7
                 1             2             3 
      1  -0.432868D+01  0.457828D-02 -0.618658D+03
      2   0.774642D-02  0.000000D+00  0.607504D-02
      3  -0.111027D+02 -0.533461D-03  0.383812D+02
 R(velocity) tensor in inp. orien. for State=          7
                 1             2             3 
      1  -0.432868D+01  0.457840D-02  0.618658D+03
      2   0.774653D-02  0.000000D+00 -0.609106D-02
      3   0.111027D+02  0.533174D-03  0.383812D+02
         8        -5.0158     -1.0877      3.8823     -0.7404
 Total R(velocity) tensor for State=          8
                 1             2             3 
      1  -0.501583D+01 -0.790289D-02 -0.135017D+03
      2   0.110562D-03 -0.108773D+01  0.283783D-02
      3   0.144226D+00 -0.621285D-04  0.388231D+01
 R(velocity) tensor in inp. orien. for State=          8
                 1             2             3 
      1  -0.501583D+01 -0.790279D-02  0.135017D+03
      2   0.110664D-03 -0.108773D+01 -0.284132D-02
      3  -0.144226D+00  0.621322D-04  0.388231D+01
         9        -2.6609      1.1348      2.1083      0.1940
 Total R(velocity) tensor for State=          9
                 1             2             3 
      1  -0.266093D+01  0.656357D-03  0.387992D+01
      2  -0.621713D-03  0.113480D+01  0.709516D-03
      3  -0.144589D+01  0.306950D-05  0.210826D+01
 R(velocity) tensor in inp. orien. for State=          9
                 1             2             3 
      1  -0.266093D+01  0.656455D-03 -0.387992D+01
      2  -0.621615D-03  0.113480D+01 -0.709416D-03
      3   0.144589D+01 -0.310694D-05  0.210826D+01
        10        -0.2545      0.9212     -0.7396     -0.0243
 Total R(velocity) tensor for State=         10
                 1             2             3 
      1  -0.254498D+00 -0.222440D-02  0.465787D+02
      2   0.141573D-03  0.921196D+00  0.507265D-03
      3   0.404121D-02 -0.667797D-05 -0.739632D+00
 R(velocity) tensor in inp. orien. for State=         10
                 1             2             3 
      1  -0.254498D+00 -0.222437D-02 -0.465787D+02
      2   0.141603D-03  0.921196D+00 -0.506059D-03
      3  -0.404121D-02  0.667808D-05 -0.739632D+00
 1/2[<0|r|b>*<b|rxdel|0> + (<0|rxdel|b>*<b|r|0>)*]
 Rotatory Strengths (R) in cgs (10**-40 erg-esu-cm/Gauss)
       state          XX          YY          ZZ     R(length)     R(au)
         1         0.0000     -1.8449      0.0000     -0.6150     -0.0013
         2        -8.7745      0.0000    -11.0941     -6.6229     -0.0140
         3        46.4367      0.0000    -25.9823      6.8181      0.0145
         4       -80.8953      0.0000     36.3088    -14.8622     -0.0315
         5         0.0000    -38.1621      0.0000    -12.7207     -0.0270
         6         0.0000     -0.4180      0.0000     -0.1393     -0.0003
         7         0.0000     34.5785      0.0000     11.5262      0.0244
         8         5.4434      0.0000     -5.3985      0.0150      0.0000
         9         9.6614      0.0000    -10.4011     -0.2466     -0.0005
        10         0.2377      0.0000      1.0002      0.4126      0.0009
  1/2[<0|del|b>*<b|r|0> + (<0|r|b>*<b|del|0>)*] (Au)
       state          X           Y           Z        Dip. S.   Osc.(frdel)
         1         0.0000     -0.4837      0.0000      0.4837      0.3224
         2        -0.6881      0.0000     -0.0006      0.6887      0.4592
         3        -1.0083      0.0000     -0.0019      1.0102      0.6735
         4        -0.0236      0.0000     -0.0021      0.0257      0.0172
         5         0.0000     -0.4669      0.0000      0.4669      0.3113
         6         0.0000     -0.0462      0.0000      0.0462      0.0308
         7         0.0000     -0.1093      0.0000      0.1093      0.0729
         8        -0.1928      0.0000     -0.0002      0.1930      0.1286
         9        -0.0014      0.0000     -0.0007      0.0021      0.0014
        10        -0.0040      0.0000      0.0000      0.0040      0.0027
 Ground to excited state transition densities written to RWF  633

 Excitation energies and oscillator strengths:
 
 Excited State   1:      Singlet-A      3.3422 eV  370.97 nm  f=0.3255  <S**2>=0.000
     121 ->122         0.69962
 This state for optimization and/or second-order correction.
 Copying the excited state density for this state as the 1-particle RhoCI density.
 
 Excited State   2:      Singlet-A      3.5298 eV  351.25 nm  f=0.4795  <S**2>=0.000
     120 ->122         0.63278
     121 ->123         0.29615
 
 Excited State   3:      Singlet-A      3.8263 eV  324.03 nm  f=0.6884  <S**2>=0.000
     120 ->122        -0.29842
     121 ->123         0.63714
 
 Excited State   4:      Singlet-A      4.0977 eV  302.57 nm  f=0.0167  <S**2>=0.000
     119 ->122         0.69547
 
 Excited State   5:      Singlet-A      4.2317 eV  292.99 nm  f=0.3195  <S**2>=0.000
     118 ->122        -0.24884
     120 ->123        -0.13907
     121 ->124         0.64036
 
 Excited State   6:      Singlet-A      4.2834 eV  289.45 nm  f=0.0316  <S**2>=0.000
     116 ->122         0.14571
     120 ->123         0.66053
     121 ->124         0.16192
 
 Excited State   7:      Singlet-A      4.3457 eV  285.31 nm  f=0.0740  <S**2>=0.000
     118 ->122         0.65074
     120 ->123        -0.11962
     121 ->124         0.22679
 
 Excited State   8:      Singlet-A      4.5056 eV  275.18 nm  f=0.1363  <S**2>=0.000
     120 ->124         0.68972
 
 Excited State   9:      Singlet-A      4.5132 eV  274.72 nm  f=0.0013  <S**2>=0.000
     117 ->122         0.66898
     121 ->127         0.18352
 
 Excited State  10:      Singlet-A      4.6308 eV  267.74 nm  f=0.0031  <S**2>=0.000
     114 ->123         0.17717
     115 ->122         0.54491
     120 ->126         0.27482
     121 ->125        -0.25796
 SavETr:  write IOETrn=   770 NScale= 10 NData=  16 NLR=1 LETran=     190.

 **********************************************************************

            Population analysis using the SCF density.

 **********************************************************************

 Orbital symmetries:
       Occupied  (A) (A) (A) (A) (A) (A) (A) (A) (A) (A) (A) (A)
                 (A) (A) (A) (A) (A) (A) (A) (A) (A) (A) (A) (A)
                 (A) (A) (A) (A) (A) (A) (A) (A) (A) (A) (A) (A)
                 (A) (A) (A) (A) (A) (A) (A) (A) (A) (A) (A) (A)
                 (A) (A) (A) (A) (A) (A) (A) (A) (A) (A) (A) (A)
                 (A) (A) (A) (A) (A) (A) (A) (A) (A) (A) (A) (A)
                 (A) (A) (A) (A) (A) (A) (A) (A) (A) (A) (A) (A)
                 (A) (A) (A) (A) (A) (A) (A) (A) (A) (A) (A) (A)
                 (A) (A) (A) (A) (A) (A) (A) (A) (A) (A) (A) (A)
                 (A) (A) (A) (A) (A) (A) (A) (A) (A) (A) (A) (A)
                 (A)
       Virtual   (A) (A) (A) (A) (A) (A) (A) (A) (A) (A) (A) (A)
                 (A) (A) (A) (A) (A) (A) (A) (A) (A) (A) (A) (A)
                 (A) (A) (A) (A) (A) (A) (A) (A) (A) (A) (A) (A)
                 (A) (A) (A) (A) (A) (A) (A) (A) (A) (A) (A) (A)
                 (A) (A) (A) (A) (A) (A) (A) (A) (A) (A) (A) (A)
                 (A) (A) (A) (A) (A) (A) (A) (A) (A) (A) (A) (A)
                 (A) (A) (A) (A) (A) (A) (A) (A) (A) (A) (A) (A)
                 (A) (A) (A) (A) (A) (A) (A) (A) (A) (A) (A) (A)
                 (A) (A) (A) (A) (A) (A) (A) (A) (A) (A) (A) (A)
                 (A) (A) (A) (A) (A) (A) (A) (A) (A) (A) (A) (A)
                 (A) (A) (A) (A) (A) (A) (A) (A) (A) (A) (A) (A)
                 (A) (A) (A) (A) (A) (A) (A) (A) (A) (A) (A) (A)
                 (A) (A) (A) (A) (A) (A) (A) (A) (A) (A) (A) (A)
                 (A) (A) (A) (A) (A) (A) (A) (A) (A) (A) (A) (A)
                 (A) (A) (A) (A) (A) (A) (A) (A) (A) (A) (A) (A)
                 (A) (A) (A) (A) (A) (A) (A) (A) (A) (A) (A) (A)
                 (A) (A) (A) (A) (A) (A) (A) (A) (A) (A) (A) (A)
                 (A) (A) (A) (A) (A) (A) (A) (A) (A) (A) (A) (A)
                 (A) (A) (A) (A) (A) (A) (A) (A) (A) (A) (A) (A)
                 (A) (A) (A) (A) (A) (A) (A) (A) (A) (A) (A) (A)
                 (A) (A) (A) (A) (A) (A) (A) (A) (A) (A) (A) (A)
                 (A) (A) (A) (A) (A) (A) (A) (A) (A) (A) (A) (A)
                 (A) (A) (A) (A) (A) (A) (A) (A) (A) (A) (A) (A)
                 (A) (A) (A) (A) (A) (A) (A) (A) (A) (A) (A) (A)
                 (A) (A) (A) (A) (A) (A) (A) (A) (A) (A) (A) (A)
                 (A) (A) (A) (A) (A) (A) (A) (A) (A) (A) (A) (A)
                 (A) (A) (A) (A) (A) (A) (A) (A) (A) (A) (A) (A)
                 (A) (A) (A) (A) (A) (A) (A) (A) (A) (A) (A) (A)
                 (A) (A) (A) (A) (A) (A) (A) (A) (A) (A) (A) (A)
                 (A) (A) (A) (A) (A) (A) (A) (A) (A) (A) (A) (A)
                 (A) (A) (A) (A) (A) (A) (A) (A) (A) (A) (A) (A)
                 (A) (A) (A) (A) (A) (A) (A) (A) (A) (A) (A) (A)
                 (A) (A) (A) (A) (A) (A) (A) (A) (A) (A) (A) (A)
                 (A) (A) (A) (A) (A) (A) (A) (A) (A) (A) (A) (A)
                 (A) (A) (A) (A) (A) (A) (A) (A) (A) (A) (A) (A)
                 (A) (A) (A) (A) (A) (A) (A) (A) (A) (A) (A) (A)
                 (A) (A) (A) (A) (A) (A) (A) (A) (A) (A) (A) (A)
                 (A) (A) (A) (A) (A) (A) (A) (A) (A) (A) (A) (A)
                 (A) (A) (A)
 The electronic state is 1-A.
 Alpha  occ. eigenvalues --  -19.22550 -19.22550 -14.33310 -14.33310 -10.28734
 Alpha  occ. eigenvalues --  -10.28734 -10.25694 -10.25694 -10.22486 -10.22485
 Alpha  occ. eigenvalues --  -10.21908 -10.21359 -10.21359 -10.21070 -10.20869
 Alpha  occ. eigenvalues --  -10.20168 -10.20168 -10.20090 -10.20090 -10.19927
 Alpha  occ. eigenvalues --  -10.19927 -10.19921 -10.19921 -10.19835 -10.19835
 Alpha  occ. eigenvalues --  -10.19342 -10.19321 -10.19280 -10.19260 -10.19223
 Alpha  occ. eigenvalues --  -10.19214 -10.18164 -10.17936 -10.17930 -10.17764
 Alpha  occ. eigenvalues --  -10.17764  -1.13168  -1.13052  -0.93277  -0.92705
 Alpha  occ. eigenvalues --   -0.87983  -0.86626  -0.86292  -0.85058  -0.84045
 Alpha  occ. eigenvalues --   -0.79156  -0.78925  -0.77263  -0.75410  -0.75382
 Alpha  occ. eigenvalues --   -0.74912  -0.74719  -0.73349  -0.72748  -0.71466
 Alpha  occ. eigenvalues --   -0.67333  -0.64271  -0.63277  -0.62751  -0.61881
 Alpha  occ. eigenvalues --   -0.60976  -0.60317  -0.59772  -0.59227  -0.59081
 Alpha  occ. eigenvalues --   -0.57053  -0.56718  -0.54672  -0.54477  -0.52299
 Alpha  occ. eigenvalues --   -0.51877  -0.50619  -0.50004  -0.48733  -0.48212
 Alpha  occ. eigenvalues --   -0.47520  -0.47226  -0.47130  -0.46115  -0.45851
 Alpha  occ. eigenvalues --   -0.44934  -0.44735  -0.44028  -0.43525  -0.42962
 Alpha  occ. eigenvalues --   -0.42949  -0.42900  -0.42724  -0.42182  -0.42167
 Alpha  occ. eigenvalues --   -0.41075  -0.40713  -0.39941  -0.38465  -0.38344
 Alpha  occ. eigenvalues --   -0.37684  -0.37040  -0.36735  -0.36243  -0.36000
 Alpha  occ. eigenvalues --   -0.35309  -0.35154  -0.34972  -0.34626  -0.34198
 Alpha  occ. eigenvalues --   -0.34001  -0.33473  -0.33037  -0.32703  -0.29106
 Alpha  occ. eigenvalues --   -0.28746  -0.28056  -0.27782  -0.25982  -0.25943
 Alpha  occ. eigenvalues --   -0.25471  -0.25239  -0.24437  -0.23818  -0.21413
 Alpha  occ. eigenvalues --   -0.20226
 Alpha virt. eigenvalues --   -0.06734  -0.04397  -0.02919  -0.00828  -0.00786
 Alpha virt. eigenvalues --   -0.00229   0.00379   0.01197   0.02485   0.04160
 Alpha virt. eigenvalues --    0.06464   0.06796   0.08002   0.09051   0.09659
 Alpha virt. eigenvalues --    0.10695   0.12117   0.12983   0.13580   0.13901
 Alpha virt. eigenvalues --    0.14670   0.15269   0.15306   0.15515   0.15955
 Alpha virt. eigenvalues --    0.16512   0.16622   0.16948   0.16969   0.17140
 Alpha virt. eigenvalues --    0.17679   0.17993   0.18280   0.18846   0.19174
 Alpha virt. eigenvalues --    0.19626   0.20005   0.20614   0.20958   0.22574
 Alpha virt. eigenvalues --    0.22799   0.22973   0.25883   0.26379   0.26830
 Alpha virt. eigenvalues --    0.27245   0.28504   0.28811   0.29574   0.29672
 Alpha virt. eigenvalues --    0.30293   0.30727   0.30746   0.30946   0.31910
 Alpha virt. eigenvalues --    0.32022   0.32608   0.33160   0.33438   0.34451
 Alpha virt. eigenvalues --    0.35239   0.36586   0.37152   0.38425   0.39952
 Alpha virt. eigenvalues --    0.40958   0.41450   0.43490   0.44069   0.45110
 Alpha virt. eigenvalues --    0.47465   0.48412   0.49214   0.49955   0.50370
 Alpha virt. eigenvalues --    0.50702   0.51014   0.51538   0.51842   0.52505
 Alpha virt. eigenvalues --    0.52669   0.53403   0.53669   0.54519   0.54557
 Alpha virt. eigenvalues --    0.54647   0.55367   0.55485   0.55527   0.56041
 Alpha virt. eigenvalues --    0.56100   0.56395   0.56772   0.57110   0.57520
 Alpha virt. eigenvalues --    0.57689   0.58378   0.58494   0.58861   0.58945
 Alpha virt. eigenvalues --    0.59024   0.59231   0.59264   0.59422   0.59588
 Alpha virt. eigenvalues --    0.59698   0.60406   0.60443   0.60688   0.60894
 Alpha virt. eigenvalues --    0.61018   0.61181   0.61354   0.61535   0.61595
 Alpha virt. eigenvalues --    0.62008   0.62291   0.62540   0.63127   0.63286
 Alpha virt. eigenvalues --    0.63729   0.64153   0.64220   0.65004   0.65028
 Alpha virt. eigenvalues --    0.65241   0.65556   0.66367   0.67510   0.68487
 Alpha virt. eigenvalues --    0.70198   0.70216   0.70404   0.71641   0.72183
 Alpha virt. eigenvalues --    0.73581   0.73814   0.75770   0.76141   0.76143
 Alpha virt. eigenvalues --    0.77429   0.78226   0.81465   0.81721   0.82065
 Alpha virt. eigenvalues --    0.82130   0.82488   0.82957   0.83013   0.83185
 Alpha virt. eigenvalues --    0.83530   0.83765   0.83989   0.84149   0.84158
 Alpha virt. eigenvalues --    0.84811   0.85395   0.85565   0.85840   0.87280
 Alpha virt. eigenvalues --    0.87904   0.88833   0.89329   0.89638   0.90183
 Alpha virt. eigenvalues --    0.90377   0.90432   0.91055   0.92163   0.93154
 Alpha virt. eigenvalues --    0.93437   0.94371   0.94510   0.95105   0.95525
 Alpha virt. eigenvalues --    0.95665   0.95936   0.96138   0.97478   0.98444
 Alpha virt. eigenvalues --    0.99080   0.99500   0.99945   1.01277   1.02559
 Alpha virt. eigenvalues --    1.03790   1.03994   1.04727   1.06537   1.06772
 Alpha virt. eigenvalues --    1.07110   1.08080   1.08101   1.08777   1.10271
 Alpha virt. eigenvalues --    1.10350   1.11566   1.11816   1.12664   1.13827
 Alpha virt. eigenvalues --    1.14066   1.14918   1.15080   1.15900   1.16773
 Alpha virt. eigenvalues --    1.17091   1.17672   1.19071   1.19385   1.19541
 Alpha virt. eigenvalues --    1.22503   1.22802   1.22876   1.24492   1.24769
 Alpha virt. eigenvalues --    1.25691   1.26746   1.27559   1.28014   1.28705
 Alpha virt. eigenvalues --    1.28888   1.30426   1.31046   1.31706   1.32539
 Alpha virt. eigenvalues --    1.32657   1.32942   1.36257   1.37712   1.39060
 Alpha virt. eigenvalues --    1.39375   1.41197   1.41451   1.42273   1.42466
 Alpha virt. eigenvalues --    1.42512   1.43581   1.43694   1.44081   1.44575
 Alpha virt. eigenvalues --    1.45665   1.46343   1.46694   1.47014   1.47039
 Alpha virt. eigenvalues --    1.47380   1.47681   1.48048   1.48260   1.48288
 Alpha virt. eigenvalues --    1.48388   1.49052   1.49700   1.49833   1.50291
 Alpha virt. eigenvalues --    1.50419   1.51024   1.51160   1.52002   1.54496
 Alpha virt. eigenvalues --    1.54677   1.55238   1.58631   1.58946   1.63000
 Alpha virt. eigenvalues --    1.65474   1.68026   1.70208   1.73105   1.74668
 Alpha virt. eigenvalues --    1.76474   1.77652   1.78251   1.79344   1.79762
 Alpha virt. eigenvalues --    1.80312   1.80497   1.81290   1.81627   1.83130
 Alpha virt. eigenvalues --    1.83398   1.84024   1.85583   1.85788   1.86693
 Alpha virt. eigenvalues --    1.87916   1.88454   1.89044   1.90256   1.90958
 Alpha virt. eigenvalues --    1.91157   1.91752   1.92526   1.92850   1.93242
 Alpha virt. eigenvalues --    1.93903   1.94043   1.95924   1.96619   1.97475
 Alpha virt. eigenvalues --    1.97536   1.98151   1.98880   2.00417   2.01287
 Alpha virt. eigenvalues --    2.02200   2.02277   2.03404   2.04738   2.04974
 Alpha virt. eigenvalues --    2.05689   2.06450   2.07601   2.09470   2.11898
 Alpha virt. eigenvalues --    2.12298   2.13005   2.13258   2.13261   2.13509
 Alpha virt. eigenvalues --    2.14467   2.14468   2.14609   2.14835   2.15093
 Alpha virt. eigenvalues --    2.15246   2.16060   2.16769   2.16874   2.18165
 Alpha virt. eigenvalues --    2.19143   2.19536   2.22308   2.22548   2.23023
 Alpha virt. eigenvalues --    2.23044   2.25094   2.25533   2.25883   2.26719
 Alpha virt. eigenvalues --    2.29010   2.29869   2.29992   2.30058   2.30485
 Alpha virt. eigenvalues --    2.30776   2.31174   2.31681   2.32166   2.32352
 Alpha virt. eigenvalues --    2.32704   2.33329   2.34688   2.35704   2.35707
 Alpha virt. eigenvalues --    2.39717   2.40621   2.44480   2.46332   2.52008
 Alpha virt. eigenvalues --    2.52657   2.53043   2.53427   2.55051   2.56005
 Alpha virt. eigenvalues --    2.57121   2.57593   2.58521   2.58650   2.59107
 Alpha virt. eigenvalues --    2.60168   2.60738   2.61407   2.62058   2.63015
 Alpha virt. eigenvalues --    2.64192   2.64970   2.65578   2.66364   2.67519
 Alpha virt. eigenvalues --    2.68565   2.68724   2.69635   2.69900   2.70957
 Alpha virt. eigenvalues --    2.71045   2.73154   2.73214   2.73712   2.73857
 Alpha virt. eigenvalues --    2.73909   2.74838   2.75771   2.76288   2.77059
 Alpha virt. eigenvalues --    2.77695   2.78398   2.79912   2.82586   2.83576
 Alpha virt. eigenvalues --    2.83668   2.85163   2.87058   2.89411   2.89748
 Alpha virt. eigenvalues --    2.93897   2.95001   2.99023   3.00684   3.03643
 Alpha virt. eigenvalues --    3.04253   3.08299   3.16483   3.19093   3.22048
 Alpha virt. eigenvalues --    3.22714   3.30938   3.38638   3.38895   3.42008
 Alpha virt. eigenvalues --    3.43012   3.43238   3.56175   4.05129   4.05434
 Alpha virt. eigenvalues --    4.07247   4.07516   4.08238   4.09149   4.09374
 Alpha virt. eigenvalues --    4.10091   4.10958   4.11046   4.11659   4.11827
 Alpha virt. eigenvalues --    4.13043   4.13167   4.19196   4.20331   4.21562
 Alpha virt. eigenvalues --    4.25527   4.31937   4.32083   4.33117   4.34804
 Alpha virt. eigenvalues --    4.34808   4.37518   4.40052   4.43283   4.49370
 Alpha virt. eigenvalues --    4.54206   4.54241   4.65089   4.71075   4.71317
 Alpha virt. eigenvalues --    4.73173   4.82602   4.93192   4.98191
          Condensed to atoms (all electrons):
 Mulliken atomic charges:
              1
     1  C    0.030150
     2  C    0.235741
     3  C    0.160610
     4  C    0.062054
     5  C    0.160613
     6  C    0.235742
     7  N   -0.563786
     8  C    0.494810
     9  O   -0.538698
    10  O   -0.538697
    11  C    0.494811
    12  N   -0.563786
    13  C    0.123408
    14  C   -0.165651
    15  C   -0.165651
    16  C   -0.137774
    17  H    0.144811
    18  C   -0.137774
    19  H    0.144813
    20  C   -0.123715
    21  H    0.131601
    22  H    0.131602
    23  H    0.131258
    24  C    0.104629
    25  C   -0.152550
    26  C   -0.152550
    27  C   -0.141748
    28  H    0.151937
    29  C   -0.141748
    30  H    0.151937
    31  C   -0.122634
    32  H    0.125971
    33  H    0.125971
    34  H    0.125638
    35  C    0.072015
    36  C   -0.167758
    37  C   -0.156773
    38  C   -0.137299
    39  H    0.156562
    40  C   -0.137984
    41  H    0.167348
    42  C   -0.119354
    43  H    0.137228
    44  H    0.138668
    45  H    0.136675
    46  C    0.072015
    47  C   -0.167758
    48  C   -0.156772
    49  C   -0.137299
    50  H    0.156561
    51  C   -0.137984
    52  H    0.167348
    53  C   -0.119354
    54  H    0.137228
    55  H    0.138668
    56  H    0.136675
 Sum of Mulliken atomic charges =   0.00000
 Mulliken charges with hydrogens summed into heavy atoms:
              1
     1  C    0.030150
     2  C    0.235741
     3  C    0.160610
     4  C    0.062054
     5  C    0.160613
     6  C    0.235742
     7  N   -0.563786
     8  C    0.494810
     9  O   -0.538698
    10  O   -0.538697
    11  C    0.494811
    12  N   -0.563786
    13  C    0.123408
    14  C   -0.020840
    15  C   -0.020838
    16  C   -0.006172
    18  C   -0.006173
    20  C    0.007542
    24  C    0.104629
    25  C   -0.000613
    26  C   -0.000613
    27  C   -0.015777
    29  C   -0.015777
    31  C    0.003005
    35  C    0.072015
    36  C   -0.011197
    37  C    0.010576
    38  C   -0.000071
    40  C    0.000684
    42  C    0.017322
    46  C    0.072015
    47  C   -0.011197
    48  C    0.010576
    49  C   -0.000071
    51  C    0.000684
    53  C    0.017322
 Sum of Mulliken charges with hydrogens summed into heavy atoms =   0.00000
 Electronic spatial extent (au):  <R**2>=          20089.2672
 Charge=              0.0000 electrons
 Dipole moment (field-independent basis, Debye):
    X=              0.0000    Y=              2.1818    Z=              0.0000  Tot=              2.1818
 Quadrupole moment (field-independent basis, Debye-Ang):
   XX=           -160.5455   YY=           -184.0838   ZZ=           -208.0869
   XY=              0.0000   XZ=              5.5648   YZ=              0.0007
 Traceless Quadrupole moment (field-independent basis, Debye-Ang):
   XX=             23.6932   YY=              0.1549   ZZ=            -23.8481
   XY=              0.0000   XZ=              5.5648   YZ=              0.0007
 Octapole moment (field-independent basis, Debye-Ang**2):
  XXX=             -0.0004  YYY=             29.1917  ZZZ=              0.0004  XYY=             -0.0004
  XXY=             16.2554  XXZ=             -0.0047  XZZ=              0.0004  YZZ=              4.5445
  YYZ=              0.0008  XYZ=             -1.0209
 Hexadecapole moment (field-independent basis, Debye-Ang**3):
 XXXX=         -14670.8240 YYYY=          -8690.0392 ZZZZ=           -377.8407 XXXY=              0.0046
 XXXZ=            -51.1610 YYYX=             -0.0008 YYYZ=              0.0035 ZZZX=             18.7113
 ZZZY=              0.0002 XXYY=          -4225.8775 XXZZ=          -3262.9828 YYZZ=          -1739.2494
 XXYZ=              0.0257 YYXZ=            137.0153 ZZXY=             -0.0016
 N-N= 3.390048703928D+03 E-N=-1.024134176264D+04  KE= 1.477307421860D+03
 1\1\GINC-ABE0457\SP\RTD-B3LYP-FC\6-31G(d)\C32H20N2O2\ATOMLINS\15-Oct-2
 010\0\\# td=(nstates=10) b3lyp/6-31g(d) geom=connectivity\\4a_CON_2J_4
 a_TDDFT\\0,1\C,0,-0.000005,-1.414297,0.00001\C,0,-1.140709,-0.604112,0
 .014719\C,0,-1.172437,0.80952,0.013073\C,0,-0.000009,1.596284,0.000018
 \C,0,1.172422,0.809524,-0.013044\C,0,1.140695,-0.604107,-0.014698\N,0,
 2.506616,1.209545,0.015043\C,0,3.198091,0.112056,0.026782\O,0,2.440974
 ,-1.040566,0.010525\O,0,-2.440986,-1.04057,-0.010518\C,0,-3.198104,0.1
 1205,-0.02678\N,0,-2.506632,1.20954,-0.015025\C,0,0.000009,-2.893334,0
 .000013\C,0,-0.989683,-3.613481,0.692433\C,0,0.98972,-3.613453,-0.6924
 07\C,0,-0.987219,-5.0069,0.691852\H,0,-1.756946,-3.077991,1.240765\C,0
 ,0.987294,-5.006872,-0.691831\H,0,1.756972,-3.077933,-1.240727\C,0,0.0
 00047,-5.710611,0.000009\H,0,-1.757838,-5.543986,1.238563\H,0,1.757929
 ,-5.543936,-1.238542\H,0,0.000061,-6.797244,0.000006\C,0,-0.000009,3.0
 744,0.000026\C,0,1.027737,3.797371,-0.635094\C,0,-1.027752,3.797368,0.
 635153\C,0,1.023692,5.190381,-0.635904\H,0,1.831272,3.261496,-1.125128
 \C,0,-1.023702,5.190378,0.635978\H,0,-1.831289,3.261492,1.125184\C,0,-
 0.000004,5.894743,0.000041\H,0,1.824628,5.727113,-1.137914\H,0,-1.8246
 36,5.727107,1.137994\H,0,-0.000002,6.981684,0.000046\C,0,4.648956,-0.0
 34816,0.058047\C,0,5.251597,-1.302552,0.088818\C,0,5.453243,1.117361,0
 .060333\C,0,6.640142,-1.412123,0.118946\H,0,4.630648,-2.19218,0.093103
 \C,0,6.838836,0.998493,0.090614\H,0,4.974749,2.090874,0.040369\C,0,7.4
 36723,-0.265148,0.119228\H,0,7.100939,-2.395723,0.143516\H,0,7.455559,
 1.892955,0.092519\H,0,8.51937,-0.354606,0.142915\C,0,-4.648967,-0.0348
 3,-0.058069\C,0,-5.2516,-1.30257,-0.088746\C,0,-5.453261,1.117344,-0.0
 60487\C,0,-6.640144,-1.412152,-0.118911\H,0,-4.630646,-2.192196,-0.092
 933\C,0,-6.838852,0.998465,-0.090807\H,0,-4.974772,2.090861,-0.040595\
 C,0,-7.436731,-0.265182,-0.119325\H,0,-7.100935,-2.395757,-0.143411\H,
 0,-7.45558,1.892924,-0.092814\H,0,-8.519377,-0.354648,-0.143038\\Versi
 on=EM64L-G09RevA.02\State=1-A\HF=-1491.4451553\RMSD=3.629e-09\PG=C01 [
 X(C32H20N2O2)]\\@


 SCIENCE AND PEACE WILL TRIUMPH OVER IGNORANCE AND WAR

                          -- PASTEUR
 Job cpu time:  0 days  7 hours 34 minutes 40.5 seconds.
 File lengths (MBytes):  RWF=    919 Int=      0 D2E=      0 Chk=    128 Scr=      1
 Normal termination of Gaussian 09 at Fri Oct 15 12:29:03 2010.
Job ran on Machine= 

